LAMMPS data file via write_data, version 29 Sep 2021, timestep = 2968089

1332 atoms
10 atom types
180 bonds
6 bond types
324 angles
6 angle types
0 dihedrals
2 dihedral types
36 impropers
2 improper types

0 25.44 xlo xhi
0 25.44 ylo yhi
35.929417 100.267417 zlo zhi

Masses

1 12.011
2 1.008
3 15.9994
4 15.9994
5 1.008
6 55.845
7 55.845
8 15.9994
9 15.9994
10 1.008

Pair Coeffs # lj/cut/coul/long

1 0.0988 3.31521
2 0.0161 2.4473
3 0.1463 3.04812
4 0.093 3.24287
5 0.0047 0.537925
6 9.0298e-07 4.9062
7 9.0298e-07 4.9062
8 0.1554 3.16554
9 0.1554 3.16554
10 0 0

Bond Coeffs # harmonic

1 361.8 1.105
2 652.57 1.218
3 383.13 1.351
4 563.51 0.973
5 554.135 1
6 0 2.08

Angle Coeffs # harmonic

1 51.617 106.55
2 65.93 123.65
3 65.262 109.49
4 115.745 122.1
5 118.817 130.25
6 30 109.47

Dihedral Coeffs # fourier

1 1 2.3 2 180
2 2 2.3 2 180 1.9 1 0

Improper Coeffs # cvff

1 10.5 -1 2
2 10.5 -1 2

Atoms # full

22 0 1 0.731 3.254777375888685 7.6922742479253134 57.08969135559333 0 0 0
21 0 2 -0.123 3.2537478103714785 7.689173442354616 55.99032472605693 0 0 0
1048 0 1 0.731 7.501234354604178 3.4580870285493193 57.08967229452014 0 1 0
1047 0 2 -0.123 7.50171273904142 3.4571867429470124 55.99029144258271 0 1 0
170 0 1 0.731 11.744465207793915 7.7011835874989645 57.08964854031836 0 0 0
169 0 2 -0.123 11.745460286223935 7.701478151218889 55.9902643398502 0 0 0
160 0 1 0.731 7.496192198429439 11.934167334005696 57.089639495838846 0 0 0
159 0 2 -0.123 7.494435568193221 11.932623882625318 55.99025930341158 0 0 0
16 0 9 -0.975 0.2108652278466627 6.509476530311228 59.78860556837508 0 0 0
18 0 9 -0.975 2.0712936251045058 4.649047351608194 59.78858331342938 0 0 0
19 2 7 1.575 2.2011779999999987 6.6394400000000005 59.618416999999994 0 0 0
15 2 7 1.575 0.08117799999999864 4.5194399999999995 59.618416999999994 0 0 0
23 0 8 -1.05 4.284343 6.676275 59.581582000000004 0 0 0
20 0 3 -0.804 2.4803711368046453 6.918573323235348 57.66990788662168 0 0 0
17 0 10 0.425 2.5929992302343225 4.12747841527627 59.0620934151523 0 0 0
609 0 10 0.425 11.073131190159694 12.60746794694573 59.06211350180293 0 0 0
916 1 7 1.575 1.1411779999999991 1.3394399999999997 60.678416999999996 0 1 0
890 0 8 -1.05 2.2380129999999987 0.24260500000000107 59.581582000000004 0 1 0
889 0 8 -1.05 0.04434299999999958 2.4362749999999984 59.581582000000004 0 1 0
299 0 10 0.425 12.409136237103352 11.271439677913014 59.06211894148264 0 0 0
154 0 3 -0.804 12.518651182327591 8.475916819469209 57.66857938395734 0 0 0
197 1 7 1.575 5.381178 5.57944 60.678416999999996 0 0 0
1044 0 9 -0.975 6.311296092828573 0.40919288583705654 59.78838995634887 0 1 0
1041 0 9 -0.975 4.450979835613281 2.2695118244701193 59.788384233120674 0 1 0
1046 2 7 1.575 6.441178000000001 2.3994399999999985 59.618416999999994 0 1 0
1040 2 7 1.575 4.321178 0.27943999999999747 59.618416999999994 0 1 0
1060 0 8 -1.05 6.478013000000001 4.4826049999999995 59.581582000000004 0 1 0
1045 0 3 -0.804 6.726080361252451 2.683570568335272 57.668102376568335 0 1 0
149 0 8 -1.05 8.524343 10.916274999999999 59.581582000000004 0 0 0
1039 0 10 0.425 3.9290715351069627 2.7913935016723608 59.06223919961165 0 1 0
164 0 9 -0.975 8.691024155427446 6.5096619421892825 59.78836512859518 0 0 0
166 0 9 -0.975 10.551329474415686 4.6493396352905245 59.78839377212537 0 0 0
167 2 7 1.575 10.681178 6.6394400000000005 59.618416999999994 0 0 0
163 2 7 1.575 8.561177999999998 4.5194399999999995 59.618416999999994 0 0 0
168 0 3 -0.804 10.968901364792163 6.92612212981038 57.66720149643162 0 0 0
165 0 10 0.425 11.073152695875681 4.12752829599222 59.06214848115615 0 0 0
161 0 10 0.425 8.169104201565133 7.03143821092393 59.06215847678994 0 0 0
1064 1 7 1.575 9.621178 1.3394399999999997 60.678416999999996 0 1 0
1038 0 8 -1.05 10.718013 0.24260500000000107 59.581582000000004 0 1 0
1037 0 8 -1.05 8.524343 2.4362749999999984 59.581582000000004 0 1 0
1050 0 3 -0.804 8.275834649050086 4.23339250051075 57.66771376725306 0 1 0
1187 0 10 0.425 12.409291226891092 2.791335228992386 59.06210837905954 0 1 0
28 1 7 1.575 1.1411779999999991 9.81944 60.678416999999996 0 0 0
2 0 8 -1.05 2.2380129999999987 8.722605 59.581582000000004 0 0 0
1 0 8 -1.05 0.04434299999999958 10.916274999999999 59.581582000000004 0 0 0
6 0 3 -0.804 4.030066431701752 8.468393050283705 57.66592938285989 0 0 0
156 0 9 -0.975 6.311201864010328 8.889081917758212 59.788416952662516 0 0 0
153 0 9 -0.975 4.450861045905402 10.749422161123004 59.7884452094891 0 0 0
158 2 7 1.575 6.441178000000001 10.879439999999999 59.618416999999994 0 0 0
152 2 7 1.575 4.321178 8.759439999999998 59.618416999999994 0 0 0
157 0 3 -0.804 6.721829001126818 11.15981576479367 57.669420246871 0 0 0
155 0 10 0.425 6.833118509977574 8.367465712188704 59.06210072424575 0 0 0
151 0 10 0.425 3.929044066582964 11.271309049406005 59.06224201655646 0 0 0
176 1 7 1.575 9.621178 9.81944 60.678416999999996 0 0 0
150 0 8 -1.05 10.718013 8.722605 59.581582000000004 0 0 0
461 0 10 0.425 2.592851817194861 12.607472875927376 59.0621089861357 0 0 0
162 0 3 -0.804 8.27165965106908 12.709545536857215 57.66634213768555 0 0 0
41 0 8 -1.05 0.11801299999999859 4.556274999999999 61.701581999999995 0 0 0
42 0 8 -1.05 2.1643419999999987 6.6026050000000005 61.701581999999995 0 0 0
39 0 8 -1.05 0.04434299999999958 6.676275 63.82158199999999 0 0 0
43 2 7 1.575 2.2011779999999987 4.5194399999999995 61.73841699999999 0 0 0
40 2 7 1.575 0.08117799999999864 6.6394400000000005 61.73841699999999 0 0 0
45 1 7 1.575 3.2611779999999992 7.69944 62.798417 0 0 0
920 0 8 -1.05 4.284343 2.4362749999999984 63.82158199999999 0 1 0
917 0 8 -1.05 2.1643419999999987 0.3162749999999974 63.89525199999999 0 1 0
934 0 8 -1.05 4.284343 4.4826049999999995 61.775251999999995 0 1 0
932 0 8 -1.05 2.2380129999999987 4.4826049999999995 63.82158199999999 0 1 0
913 0 8 -1.05 0.04434299999999958 0.24260500000000107 61.775251999999995 0 1 0
919 0 8 -1.05 2.2380129999999987 2.4362749999999984 61.775251999999995 0 1 0
915 0 8 -1.05 0.11801299999999859 2.3626039999999975 63.89525199999999 0 1 0
914 2 6 1.05 0.08117799999999864 0.27943999999999747 63.858416999999996 0 1 0
918 2 6 1.05 2.2011779999999987 2.3994399999999985 63.858416999999996 0 1 0
200 0 8 -1.05 6.478013000000001 6.676275 61.775251999999995 0 0 0
196 0 8 -1.05 4.358013 6.6026050000000005 63.89525199999999 0 0 0
198 0 8 -1.05 6.404343000000001 4.556274999999999 63.89525199999999 0 0 0
195 2 6 1.05 4.321178 4.5194399999999995 63.858416999999996 0 0 0
199 2 6 1.05 6.441178000000001 6.6394400000000005 63.858416999999996 0 0 0
1071 0 8 -1.05 6.404343000000001 2.3626039999999975 61.701581999999995 0 1 0
1073 0 8 -1.05 6.478013000000001 0.24260500000000107 63.82158199999999 0 1 0
1070 0 8 -1.05 4.358013 0.3162749999999974 61.701581999999995 0 1 0
1069 2 7 1.575 4.321178 2.3994399999999985 61.73841699999999 0 1 0
1072 2 7 1.575 6.441178000000001 0.27943999999999747 61.73841699999999 0 1 0
1074 1 7 1.575 7.501178 3.459439999999997 62.798417 0 1 0
189 0 8 -1.05 8.598012999999998 4.556274999999999 61.701581999999995 0 0 0
190 0 8 -1.05 10.644341999999998 6.6026050000000005 61.701581999999995 0 0 0
187 0 8 -1.05 8.524343 6.676275 63.82158199999999 0 0 0
191 2 7 1.575 10.681178 4.5194399999999995 61.73841699999999 0 0 0
188 2 7 1.575 8.561177999999998 6.6394400000000005 61.73841699999999 0 0 0
193 1 7 1.575 11.741178 7.69944 62.798417 0 0 0
1065 0 8 -1.05 10.644341999999998 0.3162749999999974 63.89525199999999 0 1 0
1080 0 8 -1.05 10.718013 4.4826049999999995 63.82158199999999 0 1 0
1061 0 8 -1.05 8.524343 0.24260500000000107 61.775251999999995 0 1 0
1067 0 8 -1.05 10.718013 2.4362749999999984 61.775251999999995 0 1 0
1063 0 8 -1.05 8.598012999999998 2.3626039999999975 63.89525199999999 0 1 0
1062 2 6 1.05 8.561177999999998 0.27943999999999747 63.858416999999996 0 1 0
1066 2 6 1.05 10.681178 2.3994399999999985 63.858416999999996 0 1 0
32 0 8 -1.05 4.284343 10.916274999999999 63.82158199999999 0 0 0
29 0 8 -1.05 2.1643419999999987 8.796274999999998 63.89525199999999 0 0 0
25 0 8 -1.05 0.04434299999999958 8.722605 61.775251999999995 0 0 0
31 0 8 -1.05 2.2380129999999987 10.916274999999999 61.775251999999995 0 0 0
27 0 8 -1.05 0.11801299999999859 10.842603999999998 63.89525199999999 0 0 0
26 2 6 1.05 0.08117799999999864 8.759439999999998 63.858416999999996 0 0 0
30 2 6 1.05 2.2011779999999987 10.879439999999999 63.858416999999996 0 0 0
183 0 8 -1.05 6.404343000000001 10.842603999999998 61.701581999999995 0 0 0
185 0 8 -1.05 6.478013000000001 8.722605 63.82158199999999 0 0 0
182 0 8 -1.05 4.358013 8.796274999999998 61.701581999999995 0 0 0
181 2 7 1.575 4.321178 10.879439999999999 61.73841699999999 0 0 0
184 2 7 1.575 6.441178000000001 8.759439999999998 61.73841699999999 0 0 0
186 1 7 1.575 7.501178 11.93944 62.798417 0 0 0
177 0 8 -1.05 10.644341999999998 8.796274999999998 63.89525199999999 0 0 0
173 0 8 -1.05 8.524343 8.722605 61.775251999999995 0 0 0
179 0 8 -1.05 10.718013 10.916274999999999 61.775251999999995 0 0 0
175 0 8 -1.05 8.598012999999998 10.842603999999998 63.89525199999999 0 0 0
174 2 6 1.05 8.561177999999998 8.759439999999998 63.858416999999996 0 0 0
178 2 6 1.05 10.681178 10.879439999999999 63.858416999999996 0 0 0
88 0 8 -1.05 0.11801299999999859 4.556274999999999 70.18158199999998 0 0 0
89 0 8 -1.05 0.11801299999999859 6.6026050000000005 68.135252 0 0 0
91 0 8 -1.05 2.1643419999999987 6.6026050000000005 70.18158199999998 0 0 0
90 0 8 -1.05 2.1643419999999987 4.556274999999999 68.135252 0 0 0
68 2 6 1.05 2.2011779999999987 6.6394400000000005 68.09841699999998 0 0 0
92 2 7 1.575 2.2011779999999987 4.5194399999999995 70.21841699999999 0 0 0
87 2 7 1.575 0.08117799999999864 6.6394400000000005 70.21841699999999 0 0 0
66 2 6 1.05 0.08117799999999864 4.5194399999999995 68.09841699999998 0 0 0
93 1 7 1.575 3.2611779999999992 7.69944 71.27841699999999 0 0 0
69 0 8 -1.05 2.2380129999999987 6.676275 66.01525199999999 0 0 0
70 0 8 -1.05 4.284343 6.676275 68.06158199999999 0 0 0
67 1 7 1.575 1.1411779999999991 5.57944 64.91841699999998 0 0 0
982 0 8 -1.05 4.284343 4.4826049999999995 70.25525199999998 0 1 0
965 0 8 -1.05 0.04434299999999958 0.24260500000000107 70.25525199999998 0 1 0
967 0 8 -1.05 2.2380129999999987 2.4362749999999984 70.25525199999998 0 1 0
966 1 7 1.575 1.1411779999999991 1.3394399999999997 69.158417 0 1 0
944 0 8 -1.05 2.1643419999999987 2.3626039999999975 65.94158099999999 0 1 0
946 0 8 -1.05 2.2380129999999987 0.24260500000000107 68.06158199999999 0 1 0
953 0 8 -1.05 0.04434299999999958 4.4826049999999995 66.01525199999999 0 1 0
941 0 8 -1.05 0.04434299999999958 2.4362749999999984 68.06158199999999 0 1 0
943 0 8 -1.05 0.11801299999999859 0.3162749999999974 65.94158099999999 0 1 0
948 0 8 -1.05 4.284343 0.24260500000000107 66.01525199999999 0 1 0
942 2 7 1.575 0.08117799999999864 2.3994399999999985 65.978417 0 1 0
945 2 7 1.575 2.2011779999999987 0.27943999999999747 65.978417 0 1 0
947 1 7 1.575 3.2611779999999992 3.459439999999997 67.038417 0 1 0
244 0 8 -1.05 6.478013000000001 6.676275 70.25525199999998 0 0 0
243 1 7 1.575 5.381178 5.57944 69.158417 0 0 0
220 0 8 -1.05 4.358013 4.556274999999999 65.94158099999999 0 0 0
221 0 8 -1.05 6.404343000000001 6.6026050000000005 65.94158099999999 0 0 0
222 2 7 1.575 6.441178000000001 4.5194399999999995 65.978417 0 0 0
219 2 7 1.575 4.321178 6.6394400000000005 65.978417 0 0 0
224 1 7 1.575 7.501178 7.69944 67.038417 0 0 0
1119 0 8 -1.05 6.404343000000001 0.3162749999999974 68.135252 0 1 0
1120 0 8 -1.05 6.404343000000001 2.3626039999999975 70.18158199999998 0 1 0
1118 0 8 -1.05 4.358013 2.3626039999999975 68.135252 0 1 0
1117 0 8 -1.05 4.358013 0.3162749999999974 70.18158199999998 0 1 0
1099 2 6 1.05 6.441178000000001 2.3994399999999985 68.09841699999998 0 1 0
1097 2 6 1.05 4.321178 0.27943999999999747 68.09841699999998 0 1 0
1116 2 7 1.575 4.321178 2.3994399999999985 70.21841699999999 0 1 0
1121 2 7 1.575 6.441178000000001 0.27943999999999747 70.21841699999999 0 1 0
1122 1 7 1.575 7.501178 3.459439999999997 71.27841699999999 0 1 0
1100 0 8 -1.05 6.478013000000001 2.4362749999999984 66.01525199999999 0 1 0
1111 0 8 -1.05 6.478013000000001 4.4826049999999995 68.06158199999999 0 1 0
1098 1 7 1.575 5.381178 1.3394399999999997 64.91841699999998 0 1 0
236 0 8 -1.05 8.598012999999998 4.556274999999999 70.18158199999998 0 0 0
237 0 8 -1.05 8.598012999999998 6.6026050000000005 68.135252 0 0 0
239 0 8 -1.05 10.644341999999998 6.6026050000000005 70.18158199999998 0 0 0
238 0 8 -1.05 10.644341999999998 4.556274999999999 68.135252 0 0 0
216 2 6 1.05 10.681178 6.6394400000000005 68.09841699999998 0 0 0
240 2 7 1.575 10.681178 4.5194399999999995 70.21841699999999 0 0 0
235 2 7 1.575 8.561177999999998 6.6394400000000005 70.21841699999999 0 0 0
214 2 6 1.05 8.561177999999998 4.5194399999999995 68.09841699999998 0 0 0
241 1 7 1.575 11.741178 7.69944 71.27841699999999 0 0 0
217 0 8 -1.05 10.718013 6.676275 66.01525199999999 0 0 0
215 1 7 1.575 9.621178 5.57944 64.91841699999998 0 0 0
1113 0 8 -1.05 8.524343 0.24260500000000107 70.25525199999998 0 1 0
1115 0 8 -1.05 10.718013 2.4362749999999984 70.25525199999998 0 1 0
1114 1 7 1.575 9.621178 1.3394399999999997 69.158417 0 1 0
1092 0 8 -1.05 10.644341999999998 2.3626039999999975 65.94158099999999 0 1 0
1094 0 8 -1.05 10.718013 0.24260500000000107 68.06158199999999 0 1 0
1101 0 8 -1.05 8.524343 4.4826049999999995 66.01525199999999 0 1 0
1089 0 8 -1.05 8.524343 2.4362749999999984 68.06158199999999 0 1 0
1091 0 8 -1.05 8.598012999999998 0.3162749999999974 65.94158099999999 0 1 0
1090 2 7 1.575 8.561177999999998 2.3994399999999985 65.978417 0 1 0
1093 2 7 1.575 10.681178 0.27943999999999747 65.978417 0 1 0
1095 1 7 1.575 11.741178 3.459439999999997 67.038417 0 1 0
77 0 8 -1.05 0.04434299999999958 8.722605 70.25525199999998 0 0 0
79 0 8 -1.05 2.2380129999999987 10.916274999999999 70.25525199999998 0 0 0
78 1 7 1.575 1.1411779999999991 9.81944 69.158417 0 0 0
56 0 8 -1.05 2.1643419999999987 10.842603999999998 65.94158099999999 0 0 0
58 0 8 -1.05 2.2380129999999987 8.722605 68.06158199999999 0 0 0
53 0 8 -1.05 0.04434299999999958 10.916274999999999 68.06158199999999 0 0 0
55 0 8 -1.05 0.11801299999999859 8.796274999999998 65.94158099999999 0 0 0
60 0 8 -1.05 4.284343 8.722605 66.01525199999999 0 0 0
54 2 7 1.575 0.08117799999999864 10.879439999999999 65.978417 0 0 0
57 2 7 1.575 2.2011779999999987 8.759439999999998 65.978417 0 0 0
59 1 7 1.575 3.2611779999999992 11.93944 67.038417 0 0 0
231 0 8 -1.05 6.404343000000001 8.796274999999998 68.135252 0 0 0
232 0 8 -1.05 6.404343000000001 10.842603999999998 70.18158199999998 0 0 0
230 0 8 -1.05 4.358013 10.842603999999998 68.135252 0 0 0
229 0 8 -1.05 4.358013 8.796274999999998 70.18158199999998 0 0 0
211 2 6 1.05 6.441178000000001 10.879439999999999 68.09841699999998 0 0 0
209 2 6 1.05 4.321178 8.759439999999998 68.09841699999998 0 0 0
228 2 7 1.575 4.321178 10.879439999999999 70.21841699999999 0 0 0
233 2 7 1.575 6.441178000000001 8.759439999999998 70.21841699999999 0 0 0
234 1 7 1.575 7.501178 11.93944 71.27841699999999 0 0 0
212 0 8 -1.05 6.478013000000001 10.916274999999999 66.01525199999999 0 0 0
210 1 7 1.575 5.381178 9.81944 64.91841699999998 0 0 0
225 0 8 -1.05 8.524343 8.722605 70.25525199999998 0 0 0
227 0 8 -1.05 10.718013 10.916274999999999 70.25525199999998 0 0 0
226 1 7 1.575 9.621178 9.81944 69.158417 0 0 0
204 0 8 -1.05 10.644341999999998 10.842603999999998 65.94158099999999 0 0 0
206 0 8 -1.05 10.718013 8.722605 68.06158199999999 0 0 0
201 0 8 -1.05 8.524343 10.916274999999999 68.06158199999999 0 0 0
203 0 8 -1.05 8.598012999999998 8.796274999999998 65.94158099999999 0 0 0
202 2 7 1.575 8.561177999999998 10.879439999999999 65.978417 0 0 0
205 2 7 1.575 10.681178 8.759439999999998 65.978417 0 0 0
207 1 7 1.575 11.741178 11.93944 67.038417 0 0 0
115 0 8 -1.05 2.2380129999999987 6.676275 74.49525199999998 0 0 0
112 0 8 -1.05 0.04434299999999958 6.676275 72.30158199999998 0 0 0
113 1 7 1.575 1.1411779999999991 5.57944 73.398417 0 0 0
990 0 8 -1.05 2.1643419999999987 2.3626039999999975 74.421581 0 1 0
995 0 8 -1.05 4.284343 2.4362749999999984 72.30158199999998 0 1 0
999 0 8 -1.05 0.04434299999999958 4.4826049999999995 74.49525199999998 0 1 0
989 0 8 -1.05 2.1643419999999987 0.3162749999999974 72.37525199999999 0 1 0
1002 0 8 -1.05 2.2380129999999987 4.4826049999999995 72.30158199999998 0 1 0
987 0 8 -1.05 0.11801299999999859 0.3162749999999974 74.421581 0 1 0
994 0 8 -1.05 4.284343 0.24260500000000107 74.49525199999998 0 1 0
988 0 8 -1.05 0.11801299999999859 2.3626039999999975 72.37525199999999 0 1 0
985 2 6 1.05 0.08117799999999864 0.27943999999999747 72.33841699999998 0 1 0
986 2 7 1.575 0.08117799999999864 2.3994399999999985 74.458417 0 1 0
991 2 7 1.575 2.2011779999999987 0.27943999999999747 74.458417 0 1 0
992 2 6 1.05 2.2011779999999987 2.3994399999999985 72.33841699999998 0 1 0
267 0 8 -1.05 4.358013 6.6026050000000005 72.37525199999999 0 0 0
266 0 8 -1.05 4.358013 4.556274999999999 74.421581 0 0 0
268 0 8 -1.05 6.404343000000001 4.556274999999999 72.37525199999999 0 0 0
269 0 8 -1.05 6.404343000000001 6.6026050000000005 74.421581 0 0 0
264 2 6 1.05 4.321178 4.5194399999999995 72.33841699999998 0 0 0
270 2 7 1.575 6.441178000000001 4.5194399999999995 74.458417 0 0 0
265 2 7 1.575 4.321178 6.6394400000000005 74.458417 0 0 0
271 2 6 1.05 6.441178000000001 6.6394400000000005 72.33841699999998 0 0 0
1145 0 8 -1.05 6.478013000000001 0.24260500000000107 72.30158199999998 0 1 0
1146 0 8 -1.05 6.478013000000001 2.4362749999999984 74.49525199999998 0 1 0
1144 1 7 1.575 5.381178 1.3394399999999997 73.398417 0 1 0
263 0 8 -1.05 10.718013 6.676275 74.49525199999998 0 0 0
260 0 8 -1.05 8.524343 6.676275 72.30158199999998 0 0 0
261 1 7 1.575 9.621178 5.57944 73.398417 0 0 0
1138 0 8 -1.05 10.644341999999998 2.3626039999999975 74.421581 0 1 0
1147 0 8 -1.05 8.524343 4.4826049999999995 74.49525199999998 0 1 0
1137 0 8 -1.05 10.644341999999998 0.3162749999999974 72.37525199999999 0 1 0
1150 0 8 -1.05 10.718013 4.4826049999999995 72.30158199999998 0 1 0
1135 0 8 -1.05 8.598012999999998 0.3162749999999974 74.421581 0 1 0
1136 0 8 -1.05 8.598012999999998 2.3626039999999975 72.37525199999999 0 1 0
1133 2 6 1.05 8.561177999999998 0.27943999999999747 72.33841699999998 0 1 0
1134 2 7 1.575 8.561177999999998 2.3994399999999985 74.458417 0 1 0
1139 2 7 1.575 10.681178 0.27943999999999747 74.458417 0 1 0
1140 2 6 1.05 10.681178 2.3994399999999985 72.33841699999998 0 1 0
102 0 8 -1.05 2.1643419999999987 10.842603999999998 74.421581 0 0 0
107 0 8 -1.05 4.284343 10.916274999999999 72.30158199999998 0 0 0
101 0 8 -1.05 2.1643419999999987 8.796274999999998 72.37525199999999 0 0 0
99 0 8 -1.05 0.11801299999999859 8.796274999999998 74.421581 0 0 0
106 0 8 -1.05 4.284343 8.722605 74.49525199999998 0 0 0
100 0 8 -1.05 0.11801299999999859 10.842603999999998 72.37525199999999 0 0 0
97 2 6 1.05 0.08117799999999864 8.759439999999998 72.33841699999998 0 0 0
98 2 7 1.575 0.08117799999999864 10.879439999999999 74.458417 0 0 0
103 2 7 1.575 2.2011779999999987 8.759439999999998 74.458417 0 0 0
104 2 6 1.05 2.2011779999999987 10.879439999999999 72.33841699999998 0 0 0
257 0 8 -1.05 6.478013000000001 8.722605 72.30158199999998 0 0 0
258 0 8 -1.05 6.478013000000001 10.916274999999999 74.49525199999998 0 0 0
256 1 7 1.575 5.381178 9.81944 73.398417 0 0 0
250 0 8 -1.05 10.644341999999998 10.842603999999998 74.421581 0 0 0
249 0 8 -1.05 10.644341999999998 8.796274999999998 72.37525199999999 0 0 0
247 0 8 -1.05 8.598012999999998 8.796274999999998 74.421581 0 0 0
248 0 8 -1.05 8.598012999999998 10.842603999999998 72.37525199999999 0 0 0
245 2 6 1.05 8.561177999999998 8.759439999999998 72.33841699999998 0 0 0
246 2 7 1.575 8.561177999999998 10.879439999999999 74.458417 0 0 0
251 2 7 1.575 10.681178 8.759439999999998 74.458417 0 0 0
252 2 6 1.05 10.681178 10.879439999999999 72.33841699999998 0 0 0
143 2 7 1.575 2.2011779999999987 6.6394400000000005 76.578417 0 0 0
137 2 7 1.575 0.08117799999999864 4.5194399999999995 76.578417 0 0 0
142 0 8 -1.05 2.1643419999999987 4.556274999999999 76.615252 0 0 0
138 0 8 -1.05 0.11801299999999859 6.6026050000000005 76.615252 0 0 0
146 0 9 -0.975 4.191259588970418 6.769235657852847 76.40853659745412 0 0 0
144 0 3 -0.804 1.9114992009715677 6.349657113190948 78.53069493065856 0 0 0
1033 0 10 0.425 1.80913562226976 0.6713777828480475 77.13452429918308 0 1 0
147 0 10 0.425 4.713124566672849 6.247242576918615 77.1346151278346 0 0 0
145 0 10 0.425 1.8091062701366851 9.151307903214521 77.13475089335542 0 0 0
1015 0 9 -0.975 2.331194604493537 0.14951167170810312 76.40840770758408 0 1 0
280 0 2 -0.123 5.379412798186526 9.822933662981963 80.20655021942719 0 0 0
993 1 7 1.575 3.2611779999999992 3.459439999999997 75.51841699999999 0 1 0
1014 0 10 0.425 0.47291189506371445 2.0076870012004466 77.13471211804557 0 1 0
272 1 7 1.575 7.501178 7.69944 75.51841699999999 0 0 0
1165 2 7 1.575 4.321178 0.27943999999999747 76.578417 0 1 0
1171 2 7 1.575 6.441178000000001 2.3994399999999985 76.578417 0 1 0
1166 0 8 -1.05 4.358013 2.3626039999999975 76.615252 0 1 0
1169 0 8 -1.05 6.404343000000001 0.3162749999999974 76.615252 0 1 0
1184 0 9 -0.975 6.5710286938289535 4.389652217447724 76.40811500902687 0 1 0
1170 0 3 -0.804 6.160051915314729 2.1190983180410323 78.52744788846648 0 1 0
1164 0 3 -0.804 4.610274517158684 0.5693930866345154 78.53048847624379 0 1 0
1172 0 10 0.425 6.049379780110686 4.911096718033822 77.13468848607461 0 1 0
291 2 7 1.575 10.681178 6.6394400000000005 76.578417 0 0 0
285 2 7 1.575 8.561177999999998 4.5194399999999995 76.578417 0 0 0
290 0 8 -1.05 10.644341999999998 4.556274999999999 76.615252 0 0 0
286 0 8 -1.05 8.598012999999998 6.6026050000000005 76.615252 0 0 0
292 0 3 -0.804 10.39275127565576 6.35114175424535 78.53018869868018 0 0 0
287 0 3 -0.804 8.842982249328392 4.8013773317148845 78.52767185875116 0 0 0
293 0 10 0.425 10.289282863767905 9.151618268586832 77.13478181469141 0 0 0
1163 0 9 -0.975 10.8115146880609 0.14915621128007087 76.40911448793102 0 1 0
1161 0 9 -0.975 8.431663415528684 2.528931421349768 76.40765113796724 0 1 0
1141 1 7 1.575 11.741178 3.459439999999997 75.51841699999999 0 1 0
1162 0 10 0.425 8.953768584296833 2.0065614924250332 77.13319211401573 0 1 0
127 0 9 -0.975 2.3309961597200437 8.629520407334967 76.40855436167949 0 0 0
279 0 1 0.731 5.380810778729206 9.82104746018693 79.10716914774186 0 0 0
105 1 7 1.575 3.2611779999999992 11.93944 75.51841699999999 0 0 0
126 0 10 0.425 0.47302674110508186 10.487374386160633 77.13472450182424 0 0 0
277 2 7 1.575 4.321178 8.759439999999998 76.578417 0 0 0
283 2 7 1.575 6.441178000000001 10.879439999999999 76.578417 0 0 0
278 0 8 -1.05 4.358013 10.842603999999998 76.615252 0 0 0
281 0 8 -1.05 6.404343000000001 8.796274999999998 76.615252 0 0 0
282 0 3 -0.804 6.156443263336676 10.595136559464324 78.5287239996715 0 0 0
276 0 3 -0.804 4.606522823108024 9.045480905758568 78.52913777768647 0 0 0
1181 0 10 0.425 10.290679559992933 0.6696524611735641 77.13706735381456 0 1 0
275 0 9 -0.975 10.811167075295044 8.629584638991965 76.40872771875438 0 0 0
273 0 9 -0.975 8.431319173654733 11.009457102294917 76.40851291737509 0 0 0
253 1 7 1.575 11.741178 11.93944 75.51841699999999 0 0 0
274 0 10 0.425 8.953175802557357 10.487863439542158 77.13489806190697 0 0 0
140 0 1 0.731 1.1364224238165026 5.573547657151701 79.10723881399446 0 0 0
141 0 2 -0.123 1.1355524493125593 5.570736360896164 80.20662737954602 0 0 0
1167 0 1 0.731 5.384180596096311 1.3470641016281675 79.10720682981139 0 1 0
1168 0 2 -0.123 5.381248308312112 1.3529284265091914 80.20657668177947 0 1 0
288 0 1 0.731 9.616169023495052 5.576775069512911 79.1071647400997 0 0 0
289 0 2 -0.123 9.61212986790428 5.578109168869663 80.20653896269204 0 0 0
139 0 3 -0.804 0.3619808279451618 4.799734833748968 78.5272802096074 0 0 0
294 0 9 -0.975 12.671331813021775 6.769372798189233 76.40867430073166 0 0 0
466 0 1 0.731 3.2535834318710877 16.170163459282836 57.08963296562887 0 0 0
465 0 2 -0.123 3.252223782328089 16.166141824054087 55.99026233795128 0 0 0
614 0 1 0.731 11.740709399165159 16.179770796691184 57.08956363911396 0 0 0
613 0 2 -0.123 11.73988097940718 16.18032468336547 55.9901636681867 0 0 0
910 0 1 0.731 3.258163537770805 24.654657690831314 57.08968408544321 0 0 0
909 0 2 -0.123 3.2585518998995804 24.651922354076376 55.99031021662002 0 0 0
604 0 1 0.731 7.505503926051626 20.42383669896468 57.08969095022577 0 0 0
603 0 2 -0.123 7.507853915970219 20.424162536284317 55.990318434958446 0 0 0
1058 0 1 0.731 11.743251831124208 24.6620755975983 57.0896799581486 0 0 0
1057 0 2 -0.123 11.744597192155664 24.662119039620176 55.99030238906526 0 0 0
743 0 10 0.425 12.4094061890363 19.751389653837595 59.06191995095749 0 0 0
460 0 9 -0.975 0.2107795496439783 14.989514866717235 59.788629477100635 0 0 0
462 0 9 -0.975 2.0712441675015953 13.129067910553674 59.788644017752546 0 0 0
463 2 7 1.575 2.2011779999999987 15.11944 59.618416999999994 0 0 0
459 2 7 1.575 0.08117799999999864 12.99944 59.618416999999994 0 0 0
467 0 8 -1.05 4.284343 15.156275 59.581582000000004 0 0 0
464 0 3 -0.804 2.4792968026512034 15.396877604133028 57.67042672357729 0 0 0
1053 0 10 0.425 11.073332210515254 21.087432615213707 59.06229940158891 0 0 0
1051 2 7 1.575 8.561177999999998 21.47944 59.618416999999994 0 0 0
172 0 8 -1.05 6.478013000000001 12.962605 59.581582000000004 0 0 0
641 1 7 1.575 5.381178 14.05944 60.678416999999996 0 0 0
598 0 3 -0.804 12.515688419265738 16.954348188827005 57.66775814612186 0 0 0
608 0 9 -0.975 8.690934542881132 14.98953717295063 59.78828252732214 0 0 0
610 0 9 -0.975 10.551202253928938 13.129269660003251 59.7882993989947 0 0 0
611 2 7 1.575 10.681178 15.11944 59.618416999999994 0 0 0
607 2 7 1.575 8.561177999999998 12.99944 59.618416999999994 0 0 0
612 0 3 -0.804 10.96605556453614 15.404410127900318 57.667888577696935 0 0 0
1056 0 3 -0.804 10.96793919216873 23.887118036429218 57.66724745060328 0 0 0
605 0 10 0.425 8.169186339349087 15.511406638345061 59.06202800534548 0 0 0
472 1 7 1.575 1.1411779999999991 18.29944 60.678416999999996 0 0 0
446 0 8 -1.05 2.2380129999999987 17.202605 59.581582000000004 0 0 0
445 0 8 -1.05 0.04434299999999958 19.396275 59.581582000000004 0 0 0
1049 0 10 0.425 8.169400940146952 23.991287536506345 59.06210017443492 0 0 0
450 0 3 -0.804 4.028957441018071 16.946771226466527 57.665305593797534 0 0 0
904 0 9 -0.975 0.21095322595347685 23.469492738542417 59.788561678177885 0 0 0
906 0 9 -0.975 2.071353390699221 21.609096656604848 59.78851908173289 0 0 0
907 2 7 1.575 2.2011779999999987 23.59944 59.618416999999994 0 0 0
903 2 7 1.575 0.08117799999999864 21.47944 59.618416999999994 0 0 0
911 0 8 -1.05 4.284343 23.636275 59.581582000000004 0 0 0
908 0 3 -0.804 2.483202294583321 23.88087973939803 57.6690594882579 0 0 0
905 0 10 0.425 2.5930143529947696 21.08755426872541 59.061988612281674 0 0 0
1043 0 10 0.425 6.8332187280114525 25.327479717134437 59.06215526542204 0 0 0
600 0 9 -0.975 6.311249856841555 17.369269463365466 59.78807349018719 0 0 0
597 0 9 -0.975 4.451088027559557 19.229414324216354 59.788106567039385 0 0 0
602 2 7 1.575 6.441178000000001 19.35944 59.618416999999994 0 0 0
596 2 7 1.575 4.321178 17.23944 59.618416999999994 0 0 0
616 0 8 -1.05 6.478013000000001 21.442605 59.581582000000004 0 0 0
601 0 3 -0.804 6.729626627521037 19.648522658966396 57.666605550796724 0 0 0
599 0 10 0.425 6.833236978931316 16.847266949968894 59.06206723763482 0 0 0
595 0 10 0.425 3.9290872109986794 19.751550880058627 59.06219058478764 0 0 0
1085 1 7 1.575 5.381178 22.53944 60.678416999999996 0 0 0
620 1 7 1.575 9.621178 18.29944 60.678416999999996 0 0 0
594 0 8 -1.05 10.718013 17.202605 59.581582000000004 0 0 0
593 0 8 -1.05 8.524343 19.396275 59.581582000000004 0 0 0
606 0 3 -0.804 8.279335346348434 21.198415212151293 57.66923675425739 0 0 0
1052 0 9 -0.975 8.691144520025704 23.469659352658717 59.788521094101576 0 0 0
1054 0 9 -0.975 10.551556200718219 21.6092487738263 59.788549338842564 0 0 0
1055 2 7 1.575 10.681178 23.59944 59.618416999999994 0 0 0
894 0 3 -0.804 4.0329101225985085 25.43071186010852 57.666773443394284 0 0 0
1042 0 3 -0.804 12.517675451075856 25.43689921392763 57.66859146062161 0 0 0
46 0 8 -1.05 4.284343 12.962605 61.775251999999995 0 0 0
44 0 8 -1.05 2.2380129999999987 12.962605 63.82158199999999 0 0 0
485 0 8 -1.05 0.11801299999999859 13.036275 61.701581999999995 0 0 0
486 0 8 -1.05 2.1643419999999987 15.082605000000001 61.701581999999995 0 0 0
483 0 8 -1.05 0.04434299999999958 15.156275 63.82158199999999 0 0 0
487 2 7 1.575 2.2011779999999987 12.99944 61.73841699999999 0 0 0
484 2 7 1.575 0.08117799999999864 15.11944 61.73841699999999 0 0 0
489 1 7 1.575 3.2611779999999992 16.17944 62.798417 0 0 0
644 0 8 -1.05 6.478013000000001 15.156275 61.775251999999995 0 0 0
640 0 8 -1.05 4.358013 15.082605000000001 63.89525199999999 0 0 0
642 0 8 -1.05 6.404343000000001 13.036275 63.89525199999999 0 0 0
639 2 6 1.05 4.321178 12.99944 63.858416999999996 0 0 0
643 2 6 1.05 6.441178000000001 15.11944 63.858416999999996 0 0 0
192 0 8 -1.05 10.718013 12.962605 63.82158199999999 0 0 0
633 0 8 -1.05 8.598012999999998 13.036275 61.701581999999995 0 0 0
634 0 8 -1.05 10.644341999999998 15.082605000000001 61.701581999999995 0 0 0
631 0 8 -1.05 8.524343 15.156275 63.82158199999999 0 0 0
635 2 7 1.575 10.681178 12.99944 61.73841699999999 0 0 0
632 2 7 1.575 8.561177999999998 15.11944 61.73841699999999 0 0 0
637 1 7 1.575 11.741178 16.17944 62.798417 0 0 0
476 0 8 -1.05 4.284343 19.396275 63.82158199999999 0 0 0
473 0 8 -1.05 2.1643419999999987 17.276275 63.89525199999999 0 0 0
490 0 8 -1.05 4.284343 21.442605 61.775251999999995 0 0 0
488 0 8 -1.05 2.2380129999999987 21.442605 63.82158199999999 0 0 0
469 0 8 -1.05 0.04434299999999958 17.202605 61.775251999999995 0 0 0
475 0 8 -1.05 2.2380129999999987 19.396275 61.775251999999995 0 0 0
471 0 8 -1.05 0.11801299999999859 19.322604 63.89525199999999 0 0 0
470 2 6 1.05 0.08117799999999864 17.23944 63.858416999999996 0 0 0