LAMMPS (29 Sep 2021 - Update 2)
variable  rand equal round(random(0,1e7,452345))
variable layer index 17

variable temp index 500000 450000 405000 364500 328050 295245 265720 239148 215233 193709 174338 156904 141213 127091 114381 102942 92647 83382 75043 67538 60784 54705 49234 44310 39879 35891 32301 29070 26163 23546 21191 19071 17163 15446 13901 12510 11259 10133 9119 8207 7386 6647 5982 5383 4844 4359 3923 3530 3177 2859 2573 2315 2083 1874 1686 1517 1365 1228 1105 994 894 804 723 650 585 526 473 425 382 343 308 277 249 224 201 180 162 145 130 117 105 94 84 75 67 60 54 48 43 38 34 30 27 24 21 18 16 14 12 10 9 8 7 6 5 4 3 2 1

variable type string tet_full

include settings.lmp
units              real
atom_style         full
timestep	   0.5
boundary	   p p f

pair_style         lj/cut/coul/long 12.0
bond_style         harmonic
angle_style        harmonic
dihedral_style     fourier
improper_style     cvff
kspace_style       pppm 1.0e-6
kspace_modify      slab 3.0

pair_modify        mix arithmetic
special_bonds      amber
neighbor           2.0 bin
neigh_modify       every 1 delay 0 check yes

read_data 001-dbt_3x3_${layer}L_fa_${type}_init.data
read_data 001-dbt_3x3_17L_fa_${type}_init.data
read_data 001-dbt_3x3_17L_fa_tet_full_init.data
Reading data file ...
  orthogonal box = (0.0000000 0.0000000 35.929417) to (25.440000 25.440000 100.26742)
  2 by 2 by 5 MPI processor grid
  reading atoms ...
  1332 atoms
  reading velocities ...
  1332 velocities
  scanning bonds ...
  3 = max bonds/atom
  scanning angles ...
  3 = max angles/atom
  scanning impropers ...
  1 = max impropers/atom
  reading bonds ...
  180 bonds
  reading angles ...
  324 angles
  reading impropers ...
  36 impropers
Finding 1-2 1-3 1-4 neighbors ...
  special bond factors lj:    0        0        0.5     
  special bond factors coul:  0        0        0.8333333333333334
     3 = max # of 1-2 neighbors
     2 = max # of 1-3 neighbors
     2 = max # of 1-4 neighbors
     3 = max # of special neighbors
  special bonds CPU = 0.001 seconds
  read_data CPU = 0.025 seconds

include ff_formic_acid_fe304.param
#####################-----formic_acid-----######################################

mass  1   12.011   # Sp2 C carbonyl group
mass  2    1.008   # H bonded to non-sp3 carbon with 2 electrwd. group
mass  3   15.9994  # Oxygen with one connected atom
mass  4   15.9994  # Oxygen in hydroxyl group
mass  5    1.008   # Hydroxyl group

pair_coeff  1  1   0.0988  3.31521230994  # c
pair_coeff  2  2   0.0161  2.44729877873  # h5
pair_coeff  3  3   0.1463  3.04812087425  # o
pair_coeff  4  4   0.0930  3.24287133403  # oh
pair_coeff  5  5   0.0047  0.537924646013 # ho

bond_coeff  1  361.80  1.105  # c-h5
bond_coeff  2  652.57  1.218  # c=o
bond_coeff  3  383.13  1.351  # c-oh
bond_coeff  4  563.51  0.973  # o-h

angle_coeff  1   51.617  106.550  # c-oh-ho
angle_coeff  2   65.930  123.650  # h5-c=o
angle_coeff  3   65.262  109.490  # h5-c-oh
angle_coeff  4  115.745  122.100  # o=c-oh

dihedral_coeff  1  1  2.3  2  180.0               # h5-c-oh-ho
dihedral_coeff  2  2  2.3  2  180.0  1.9  1  0.0  # o=c-oh-ho

                              #  h5
                              #  |
improper_coeff  1  10.5 -1 2  #  c
                              # / \
                              # o  oh

#####################-----formate-----###########################################

angle_coeff  5   118.817 130.250  # o-c-o

                              #  h5
                              #  |
improper_coeff  2  10.5 -1 2  #  c
                              # / \
                              # o  o

#####################-----magnetite-----#########################################

mass  6   55.845   # Iron(II)
mass  7   55.845   # Iron(III)
mass  8   15.9994  # Bridging oxygen
mass  9   15.9994  # Hydroxyl oxygen
mass  10   1.008   # Hydroxyl hydrogen

pair_coeff  6  6   9.0298e-07  4.90620  # fe2
pair_coeff  7  7   9.0298e-07  4.90620  # fe3
pair_coeff  8  8   0.1554      3.16554  # ob
pair_coeff  9  9   0.1554      3.16554  # oh
pair_coeff  10 10  0.0         0.0      # ho

bond_coeff  5  554.1349  1.0   # oh-ho
bond_coeff  6    0.0     2.08  # fe-oh (dummy bond)

angle_coeff  6   30.0  109.470  # fe-oh-ho

##################################################################################

dump dmp all custom 10000 swap_${layer}L_${type}.lammpstrj id mol type q x y z
dump dmp all custom 10000 swap_17L_${type}.lammpstrj id mol type q x y z
dump dmp all custom 10000 swap_17L_tet_full.lammpstrj id mol type q x y z
dump_modify dmp sort id

group fe type 7 6
468 atoms in group fe

compute coord fe coord/atom cutoff 2.0
dump coord fe custom 1 fe_${layer}L.coord id type c_coord
dump coord fe custom 1 fe_17L.coord id type c_coord
dump_modify coord sort id
run 0
WARNING: No fixes defined, atoms won't move (../verlet.cpp:55)
PPPM initialization ...
  using 12-bit tables for long-range coulomb (../kspace.cpp:340)
  G vector (1/distance) = 0.28992484
  grid = 40 40 160
  stencil order = 5
  estimated absolute RMS force accuracy = 0.0003575219
  estimated relative force accuracy = 1.0766666e-06
  using double precision KISS FFT
  3d grid and FFT values/proc = 100920 46800
Neighbor list info ...
  update every 1 steps, delay 0 steps, check yes
  max neighbors/atom: 2000, page size: 100000
  master list distance cutoff = 14
  ghost atom cutoff = 14
  binsize = 7, bins = 4 4 10
  2 neighbor lists, perpetual/occasional/extra = 1 1 0
  (1) pair lj/cut/coul/long, perpetual
      attributes: half, newton on
      pair build: half/bin/newton
      stencil: half/bin/3d
      bin: standard
  (2) compute coord/atom, occasional
      attributes: full, newton on
      pair build: full/bin
      stencil: full/bin/3d
      bin: standard
Per MPI rank memory allocation (min/avg/max) = 12.94 | 14.74 | 19.36 Mbytes
Step Temp E_pair E_mol TotEng Press 
       0            0   -200207.35    14963.752   -185243.59   -43159.178 
Loop time of 3.85672e-05 on 20 procs for 0 steps with 1332 atoms

64.3% CPU use with 20 MPI tasks x no OpenMP threads

MPI task timing breakdown:
Section |  min time  |  avg time  |  max time  |%varavg| %total
---------------------------------------------------------------
Pair    | 0          | 0          | 0          |   0.0 |  0.00
Bond    | 0          | 0          | 0          |   0.0 |  0.00
Kspace  | 0          | 0          | 0          |   0.0 |  0.00
Neigh   | 0          | 0          | 0          |   0.0 |  0.00
Comm    | 0          | 0          | 0          |   0.0 |  0.00
Output  | 0          | 0          | 0          |   0.0 |  0.00
Modify  | 0          | 0          | 0          |   0.0 |  0.00
Other   |            | 3.857e-05  |            |       |100.00

Nlocal:        66.6000 ave         216 max           0 min
Histogram: 8 0 8 0 0 0 0 0 0 4
Nghost:        2084.60 ave        3163 max         856 min
Histogram: 8 0 0 0 0 0 0 0 8 4
Neighs:        27322.2 ave      101517 max           0 min
Histogram: 8 4 4 0 0 0 0 0 0 4
FullNghs:      54644.4 ave      197745 max           0 min
Histogram: 8 7 1 0 0 0 0 0 0 4

Total # of neighbors = 1092888
Ave neighs/atom = 820.48649
Ave special neighs/atom = 0.43243243
Neighbor list builds = 0
Dangerous builds = 0
variable fet atom c_coord==4
group fet variable fet
144 atoms in group fet
group feo subtract fe fet
324 atoms in group feo
undump coord

variable nfeo equal count(feo)
variable nsteps equal round((${nfeo}*${nfeo})/4)
variable nsteps equal round((324*${nfeo})/4)
variable nsteps equal round((324*324)/4)
variable nsteps_initial equal ${nfeo}*${nfeo}
variable nsteps_initial equal 324*${nfeo}
variable nsteps_initial equal 324*324

set group all mol 0
Setting atom values ...
  1332 settings made for mol
set group fet mol 1
Setting atom values ...
  144 settings made for mol
set group feo mol 2
Setting atom values ...
  324 settings made for mol

variable fet3 atom "gmask(fet) && q == 1.575"
group fet3 dynamic fe var fet3 every 100
dynamic group fet3 defined
variable rfet3 equal count(fet3)/count(fet)

variable feo3 atom "gmask(feo) && q == 1.575"
group feo3 dynamic fe var feo3 every 100
dynamic group feo3 defined
variable rfeo3 equal count(feo3)/count(feo)

variable cnum equal 109

# Initial mc to remove any residuals
fix  swp feo atom/swap 1 1 ${rand} 10000 ke no types 6 7
fix  swp feo atom/swap 1 1 855824 10000 ke no types 6 7
thermo 1000
thermo_style custom step pe f_swp[1] f_swp[2] v_rfet3 v_rfeo3
run ${nsteps_initial}
run 104976
PPPM initialization ...
  using 12-bit tables for long-range coulomb (../kspace.cpp:340)
  G vector (1/distance) = 0.28992484
  grid = 40 40 160
  stencil order = 5
  estimated absolute RMS force accuracy = 0.0003575219
  estimated relative force accuracy = 1.0766666e-06
  using double precision KISS FFT
  3d grid and FFT values/proc = 100920 46800
Per MPI rank memory allocation (min/avg/max) = 11.68 | 13.48 | 18.09 Mbytes
Step PotEng f_swp[1] f_swp[2] v_rfet3 v_rfeo3 
       0   -185243.59            0            0            1   0.66666667 
    1000   -194169.77         1000          400            1   0.66666667 
    2000   -193803.66         2000          769            1   0.66666667 
    3000   -194086.85         3000         1137            1   0.66666667 
    4000   -194163.44         4000         1478            1   0.66666667 
    5000   -194160.65         5000         1831            1   0.66666667 
    6000   -193987.78         6000         2145            1   0.66666667 
    7000   -194004.86         7000         2505            1   0.66666667 
    8000   -193795.27         8000         2875            1   0.66666667 
    9000   -194182.35         9000         3258            1   0.66666667 
   10000   -194110.54        10000         3648            1   0.66666667 
   11000   -193930.94        11000         3998            1   0.66666667 
   12000   -194120.57        12000         4381            1   0.66666667 
   13000   -194061.88        13000         4730            1   0.66666667 
   14000   -194114.13        14000         5076            1   0.66666667 
   15000   -194093.09        15000         5444            1   0.66666667 
   16000   -193986.69        16000         5784            1   0.66666667 
   17000   -193836.39        17000         6137            1   0.66666667 
   18000    -194134.9        18000         6493            1   0.66666667 
   19000   -194241.08        19000         6812            1   0.66666667 
   20000   -194078.32        20000         7167            1   0.66666667 
   21000   -194090.05        21000         7530            1   0.66666667 
   22000   -193898.83        22000         7898            1   0.66666667 
   23000   -194006.01        23000         8232            1   0.66666667 
   24000   -194075.95        24000         8616            1   0.66666667 
   25000   -194021.53        25000         8956            1   0.66666667 
   26000   -193985.52        26000         9340            1   0.66666667 
   27000   -194049.31        27000         9694            1   0.66666667 
   28000   -194068.99        28000        10051            1   0.66666667 
   29000    -194135.5        29000        10402            1   0.66666667 
   30000   -194028.48        30000        10767            1   0.66666667 
   31000   -194169.63        31000        11118            1   0.66666667 
   32000   -194059.49        32000        11479            1   0.66666667 
   33000   -194044.39        33000        11819            1   0.66666667 
   34000    -194039.3        34000        12207            1   0.66666667 
   35000   -194248.78        35000        12561            1   0.66666667 
   36000    -194096.2        36000        12887            1   0.66666667 
   37000    -194052.8        37000        13246            1   0.66666667 
   38000    -194130.1        38000        13579            1   0.66666667 
   39000   -194034.41        39000        13949            1   0.66666667 
   40000   -193926.82        40000        14324            1   0.66666667 
   41000   -194206.08        41000        14692            1   0.66666667 
   42000   -194123.59        42000        15033            1   0.66666667 
   43000   -194087.54        43000        15371            1   0.66666667 
   44000   -194136.81        44000        15712            1   0.66666667 
   45000    -194065.9        45000        16102            1   0.66666667 
   46000   -194183.47        46000        16452            1   0.66666667 
   47000   -194160.12        47000        16803            1   0.66666667 
   48000   -194085.84        48000        17176            1   0.66666667 
   49000   -194050.74        49000        17556            1   0.66666667 
   50000   -194078.98        50000        17904            1   0.66666667 
   51000    -194051.9        51000        18260            1   0.66666667 
   52000   -193981.47        52000        18615            1   0.66666667 
   53000   -193945.95        53000        18982            1   0.66666667 
   54000   -194005.13        54000        19359            1   0.66666667 
   55000   -194074.97        55000        19717            1   0.66666667 
   56000   -193960.28        56000        20059            1   0.66666667 
   57000   -194126.78        57000        20419            1   0.66666667 
   58000   -194149.11        58000        20795            1   0.66666667 
   59000   -194049.22        59000        21146            1   0.66666667 
   60000   -193974.03        60000        21516            1   0.66666667 
   61000   -194148.08        61000        21850            1   0.66666667 
   62000   -194123.29        62000        22193            1   0.66666667 
   63000   -194179.26        63000        22540            1   0.66666667 
   64000    -193981.9        64000        22910            1   0.66666667 
   65000   -194139.02        65000        23249            1   0.66666667 
   66000   -193955.64        66000        23597            1   0.66666667 
   67000   -194129.67        67000        23967            1   0.66666667 
   68000   -194105.54        68000        24331            1   0.66666667 
   69000   -194215.83        69000        24690            1   0.66666667 
   70000   -194275.23        70000        25082            1   0.66666667 
   71000   -193898.52        71000        25456            1   0.66666667 
   72000   -193945.03        72000        25802            1   0.66666667 
   73000   -194218.33        73000        26117            1   0.66666667 
   74000   -194005.66        74000        26453            1   0.66666667 
   75000    -194169.1        75000        26818            1   0.66666667 
   76000   -194039.59        76000        27152            1   0.66666667 
   77000   -194066.37        77000        27510            1   0.66666667 
   78000   -194239.46        78000        27886            1   0.66666667 
   79000   -194144.78        79000        28249            1   0.66666667 
   80000   -194085.75        80000        28617            1   0.66666667 
   81000   -193945.43        81000        28989            1   0.66666667 
   82000   -194288.53        82000        29358            1   0.66666667 
   83000    -194200.8        83000        29720            1   0.66666667 
   84000   -194162.16        84000        30075            1   0.66666667 
   85000   -194095.13        85000        30434            1   0.66666667 
   86000   -193988.23        86000        30775            1   0.66666667 
   87000   -194056.58        87000        31122            1   0.66666667 
   88000   -194115.48        88000        31501            1   0.66666667 
   89000   -194142.27        89000        31846            1   0.66666667 
   90000   -194049.11        90000        32211            1   0.66666667 
   91000    -193938.1        91000        32611            1   0.66666667 
   92000   -193887.77        92000        32997            1   0.66666667 
   93000   -193985.83        93000        33349            1   0.66666667 
   94000   -194001.02        94000        33749            1   0.66666667 
   95000   -193956.17        95000        34098            1   0.66666667 
   96000   -194102.92        96000        34443            1   0.66666667 
   97000   -194114.21        97000        34791            1   0.66666667 
   98000   -194131.91        98000        35155            1   0.66666667 
   99000   -194163.05        99000        35485            1   0.66666667 
  100000   -194103.19       100000        35865            1   0.66666667 
  101000   -193975.21       101000        36244            1   0.66666667 
  102000   -193869.53       102000        36598            1   0.66666667 
  103000   -194088.39       103000        36950            1   0.66666667 
  104000   -193959.27       104000        37309            1   0.66666667 
  104976   -194016.21       104976        37662            1   0.66666667 
Loop time of 4258.13 on 20 procs for 104976 steps with 1332 atoms

Performance: 1.065 ns/day, 22.535 hours/ns, 24.653 timesteps/s
99.4% CPU use with 20 MPI tasks x no OpenMP threads

MPI task timing breakdown:
Section |  min time  |  avg time  |  max time  |%varavg| %total
---------------------------------------------------------------
Pair    | 0.060192   | 53.842     | 193.95     | 965.7 |  1.26
Bond    | 0.071954   | 0.34634    | 0.76123    |  52.1 |  0.01
Kspace  | 652.09     | 792.49     | 847.18     | 252.8 | 18.61
Neigh   | 222.82     | 223.62     | 224.79     |   3.9 |  5.25
Comm    | 40.368     | 47.186     | 54.093     |  75.1 |  1.11
Output  | 0.01263    | 0.020003   | 0.029143   |   3.8 |  0.00
Modify  | 3132.7     | 3139.4     | 3145.2     |   8.9 | 73.73
Other   |            | 1.23       |            |       |  0.03

Nlocal:        66.6000 ave         216 max           0 min
Histogram: 8 0 8 0 0 0 0 0 0 4
Nghost:        2084.60 ave        3163 max         856 min
Histogram: 8 0 0 0 0 0 0 0 8 4
Neighs:        27322.2 ave      101517 max           0 min
Histogram: 8 4 4 0 0 0 0 0 0 4
FullNghs:      54644.4 ave      197745 max           0 min
Histogram: 8 7 1 0 0 0 0 0 0 4

Total # of neighbors = 1092888
Ave neighs/atom = 820.48649
Ave special neighs/atom = 0.43243243
Neighbor list builds = 209952
Dangerous builds = 0
unfix swp

thermo_style custom step temp pe
write_data 001-dbt_3x3_${layer}L_fa_${type}_rand.data
write_data 001-dbt_3x3_17L_fa_${type}_rand.data
write_data 001-dbt_3x3_17L_fa_tet_full_rand.data
System init for write_data ...
PPPM initialization ...
  using 12-bit tables for long-range coulomb (../kspace.cpp:340)
  G vector (1/distance) = 0.28992484
  grid = 40 40 160
  stencil order = 5
  estimated absolute RMS force accuracy = 0.0003575219
  estimated relative force accuracy = 1.0766666e-06
  using double precision KISS FFT
  3d grid and FFT values/proc = 100920 46800

variable top_immobile equal bound(all,zmax)
variable top_immobile equal ${top_immobile}-10
variable top_immobile equal 80.267417-10

variable bottom_immobile equal bound(all,zmin)
variable bottom_immobile equal ${bottom_immobile}+10
variable bottom_immobile equal 55.929417+10

region top_immobile block INF INF INF INF ${top_immobile} INF side in units box
region top_immobile block INF INF INF INF 70.267417 INF side in units box
region bottom_immobile block INF INF INF INF INF ${bottom_immobile} side in units box
region bottom_immobile block INF INF INF INF INF 65.929417 side in units box

group top_immobile region top_immobile
486 atoms in group top_immobile
group bottom_immobile region bottom_immobile
486 atoms in group bottom_immobile

group ho type 9 10
144 atoms in group ho
group fa type 1 2 3 4 5
144 atoms in group fa

# Minimize O-H bond
group immobile_1 type 1 2 3 6 7 8
1188 atoms in group immobile_1

group top_ho intersect top_immobile ho
72 atoms in group top_ho
group bottom_ho intersect bottom_immobile ho
72 atoms in group bottom_ho

group top_fa intersect top_immobile fa
72 atoms in group top_fa
group bottom_fa intersect bottom_immobile fa
72 atoms in group bottom_fa

group immo_top_fa subtract all top_fa
1260 atoms in group immo_top_fa
group immo_bottom_fa subtract all bottom_fa
1260 atoms in group immo_bottom_fa

group immo_top_ho subtract all top_ho
1260 atoms in group immo_top_ho
group immo_bottom_ho subtract all bottom_ho
1260 atoms in group immo_bottom_ho

label minimize_temp

  variable ftemp equal v_temp

  # Minimize top formate
  fix freeze immo_top_fa setforce 0.0 0.0 0.0
  minimize 1.0e-6 1.0e-9 1000 10000
PPPM initialization ...
  using 12-bit tables for long-range coulomb (../kspace.cpp:340)
  G vector (1/distance) = 0.28992484
  grid = 40 40 160
  stencil order = 5
  estimated absolute RMS force accuracy = 0.0003575219
  estimated relative force accuracy = 1.0766666e-06
  using double precision KISS FFT
  3d grid and FFT values/proc = 100920 46800
Per MPI rank memory allocation (min/avg/max) = 12.80 | 14.60 | 19.22 Mbytes
Step Temp PotEng 
  104976            0   -194016.21 
  104993            0   -198202.84 
Loop time of 0.296848 on 20 procs for 17 steps with 1332 atoms

99.4% CPU use with 20 MPI tasks x no OpenMP threads

Minimization stats:
  Stopping criterion = energy tolerance
  Energy initial, next-to-last, final = 
       -194016.2059387  -198202.736221083  -198202.842021177
  Force two-norm initial, final = 3801.7726 13.989572
  Force max component initial, final = 431.65114 4.6253584
  Final line search alpha, max atom move = 0.0090384635 0.041806133
  Iterations, force evaluations = 17 31

MPI task timing breakdown:
Section |  min time  |  avg time  |  max time  |%varavg| %total
---------------------------------------------------------------
Pair    | 1.9892e-05 | 0.024565   | 0.087883   |  20.5 |  8.28
Bond    | 4.1798e-05 | 0.00013825 | 0.00031024 |   0.0 |  0.05
Kspace  | 0.1993     | 0.26263    | 0.28775    |   6.3 | 88.47
Neigh   | 0          | 0          | 0          |   0.0 |  0.00
Comm    | 0.0036145  | 0.0057834  | 0.0078437  |   2.1 |  1.95
Output  | 0          | 0          | 0          |   0.0 |  0.00
Modify  | 2.4571e-05 | 4.7912e-05 | 7.8955e-05 |   0.0 |  0.02
Other   |            | 0.003682   |            |       |  1.24

Nlocal:        66.6000 ave         216 max           0 min
Histogram: 8 0 8 0 0 0 0 0 0 4
Nghost:        2084.60 ave        3163 max         856 min
Histogram: 8 0 0 0 0 0 0 0 8 4
Neighs:        27322.2 ave      101517 max           0 min
Histogram: 8 4 4 0 0 0 0 0 0 4
FullNghs:      54644.4 ave      197745 max           0 min
Histogram: 8 7 1 0 0 0 0 0 0 4

Total # of neighbors = 1092888
Ave neighs/atom = 820.48649
Ave special neighs/atom = 0.43243243
Neighbor list builds = 0
Dangerous builds = 0
  min_modify integrator eulerexplicit tmax 10.0 tmin 0.0 delaystep 5           dtgrow 1.1 dtshrink 0.5 alpha0 0.1 alphashrink 0.99           vdfmax 100000 halfstepback no initialdelay no
  unfix freeze

  # Minimize top ho
  fix freeze immo_top_ho setforce 0.0 0.0 0.0
  minimize 1.0e-6 1.0e-9 1000 10000
PPPM initialization ...
  using 12-bit tables for long-range coulomb (../kspace.cpp:340)
  G vector (1/distance) = 0.28992484
  grid = 40 40 160
  stencil order = 5
  estimated absolute RMS force accuracy = 0.0003575219
  estimated relative force accuracy = 1.0766666e-06
  using double precision KISS FFT
  3d grid and FFT values/proc = 100920 46800
Per MPI rank memory allocation (min/avg/max) = 12.80 | 14.60 | 19.22 Mbytes
Step Temp PotEng 
  104993            0   -198202.84 
  105000            0    -202039.6 
  105036            0   -203238.77 
Loop time of 0.611133 on 20 procs for 43 steps with 1332 atoms

99.2% CPU use with 20 MPI tasks x no OpenMP threads

Minimization stats:
  Stopping criterion = energy tolerance
  Energy initial, next-to-last, final = 
     -198202.842021177  -203238.684744956  -203238.765122742
  Force two-norm initial, final = 3374.4020 12.687163
  Force max component initial, final = 380.97759 3.0056658
  Final line search alpha, max atom move = 0.024644103 0.074071937
  Iterations, force evaluations = 43 64

MPI task timing breakdown:
Section |  min time  |  avg time  |  max time  |%varavg| %total
---------------------------------------------------------------
Pair    | 3.8695e-05 | 0.049945   | 0.17801    |  29.3 |  8.17
Bond    | 8.0662e-05 | 0.00029071 | 0.0006707  |   0.0 |  0.05
Kspace  | 0.40688    | 0.53493    | 0.58598    |   9.0 | 87.53
Neigh   | 0.006215   | 0.0062474  | 0.0062854  |   0.0 |  1.02
Comm    | 0.0083492  | 0.012815   | 0.017017   |   2.8 |  2.10
Output  | 2.35e-05   | 2.5641e-05 | 4.9457e-05 |   0.0 |  0.00
Modify  | 5.1698e-05 | 8.8726e-05 | 0.00012717 |   0.0 |  0.01
Other   |            | 0.006791   |            |       |  1.11

Nlocal:        66.6000 ave         216 max           0 min
Histogram: 8 0 8 0 0 0 0 0 0 4
Nghost:        2086.40 ave        3162 max         863 min
Histogram: 8 0 0 0 0 0 0 0 8 4
Neighs:        27319.0 ave      101595 max           0 min
Histogram: 8 4 4 0 0 0 0 0 0 4
FullNghs:      54644.4 ave      197745 max           0 min
Histogram: 8 7 1 0 0 0 0 0 0 4

Total # of neighbors = 1092888
Ave neighs/atom = 820.48649
Ave special neighs/atom = 0.43243243
Neighbor list builds = 3
Dangerous builds = 0
  min_modify integrator eulerexplicit tmax 10.0 tmin 0.0 delaystep 5           dtgrow 1.1 dtshrink 0.5 alpha0 0.1 alphashrink 0.99           vdfmax 100000 halfstepback no initialdelay no
  unfix freeze

  # Minimize bottom formate
  fix freeze immo_bottom_fa setforce 0.0 0.0 0.0
  minimize 1.0e-6 1.0e-9 1000 10000
PPPM initialization ...
  using 12-bit tables for long-range coulomb (../kspace.cpp:340)
  G vector (1/distance) = 0.28992484
  grid = 40 40 160
  stencil order = 5
  estimated absolute RMS force accuracy = 0.0003575219
  estimated relative force accuracy = 1.0766666e-06
  using double precision KISS FFT
  3d grid and FFT values/proc = 100920 46800
Per MPI rank memory allocation (min/avg/max) = 12.80 | 14.60 | 19.22 Mbytes
Step Temp PotEng 
  105036            0   -203238.77 
  105053            0   -207454.41 
Loop time of 0.301381 on 20 procs for 17 steps with 1332 atoms

99.3% CPU use with 20 MPI tasks x no OpenMP threads

Minimization stats:
  Stopping criterion = energy tolerance
  Energy initial, next-to-last, final = 
     -203238.765122742  -207454.353375456  -207454.413454835
  Force two-norm initial, final = 3815.3237 10.851920
  Force max component initial, final = 431.60109 2.4432331
  Final line search alpha, max atom move = 0.022558440 0.055115527
  Iterations, force evaluations = 17 31

MPI task timing breakdown:
Section |  min time  |  avg time  |  max time  |%varavg| %total
---------------------------------------------------------------
Pair    | 2.1496e-05 | 0.024898   | 0.088035   |  20.4 |  8.26
Bond    | 3.9569e-05 | 0.00013957 | 0.00028846 |   0.0 |  0.05
Kspace  | 0.2039     | 0.26703    | 0.29252    |   6.3 | 88.60
Neigh   | 0          | 0          | 0          |   0.0 |  0.00
Comm    | 0.0037171  | 0.0058946  | 0.0079574  |   2.0 |  1.96
Output  | 0          | 0          | 0          |   0.0 |  0.00
Modify  | 3.2479e-05 | 4.7589e-05 | 6.3633e-05 |   0.0 |  0.02
Other   |            | 0.003373   |            |       |  1.12

Nlocal:        66.6000 ave         216 max           0 min
Histogram: 8 0 8 0 0 0 0 0 0 4
Nghost:        2086.40 ave        3162 max         863 min
Histogram: 8 0 0 0 0 0 0 0 8 4
Neighs:        27319.0 ave      101591 max           0 min
Histogram: 8 4 4 0 0 0 0 0 0 4
FullNghs:      54644.4 ave      197745 max           0 min
Histogram: 8 7 1 0 0 0 0 0 0 4

Total # of neighbors = 1092888
Ave neighs/atom = 820.48649
Ave special neighs/atom = 0.43243243
Neighbor list builds = 0
Dangerous builds = 0
  min_modify integrator eulerexplicit tmax 10.0 tmin 0.0 delaystep 5           dtgrow 1.1 dtshrink 0.5 alpha0 0.1 alphashrink 0.99           vdfmax 100000 halfstepback no initialdelay no
  unfix freeze

  # Minimize bottom ho
  fix freeze immo_bottom_ho setforce 0.0 0.0 0.0
  minimize 1.0e-6 1.0e-9 1000 10000
PPPM initialization ...
  using 12-bit tables for long-range coulomb (../kspace.cpp:340)
  G vector (1/distance) = 0.28992484
  grid = 40 40 160
  stencil order = 5
  estimated absolute RMS force accuracy = 0.0003575219
  estimated relative force accuracy = 1.0766666e-06
  using double precision KISS FFT
  3d grid and FFT values/proc = 100920 46800
Per MPI rank memory allocation (min/avg/max) = 12.80 | 14.60 | 19.22 Mbytes
Step Temp PotEng 
  105053            0   -207454.41 
  105079            0   -209850.65 
Loop time of 0.383184 on 20 procs for 26 steps with 1332 atoms

99.4% CPU use with 20 MPI tasks x no OpenMP threads

Minimization stats:
  Stopping criterion = energy tolerance
  Energy initial, next-to-last, final = 
     -207454.413454835  -209850.621123108  -209850.653913554
  Force two-norm initial, final = 1090.1533 5.4594416
  Force max component initial, final = 196.56305 1.2412158
  Final line search alpha, max atom move = 0.028044963 0.034809851
  Iterations, force evaluations = 26 40

MPI task timing breakdown:
Section |  min time  |  avg time  |  max time  |%varavg| %total
---------------------------------------------------------------
Pair    | 3.4486e-05 | 0.031685   | 0.11306    |  23.3 |  8.27
Bond    | 5.3141e-05 | 0.00018479 | 0.00039394 |   0.0 |  0.05
Kspace  | 0.25534    | 0.33674    | 0.36917    |   7.1 | 87.88
Neigh   | 0.0021196  | 0.0021342  | 0.0021519  |   0.0 |  0.56
Comm    | 0.0051901  | 0.0079946  | 0.01065    |   2.3 |  2.09
Output  | 0          | 0          | 0          |   0.0 |  0.00
Modify  | 3.4523e-05 | 5.7301e-05 | 8.1862e-05 |   0.0 |  0.01
Other   |            | 0.004393   |            |       |  1.15

Nlocal:        66.6000 ave         216 max           0 min
Histogram: 8 0 8 0 0 0 0 0 0 4
Nghost:        2085.35 ave        3162 max         863 min
Histogram: 8 0 0 0 0 0 0 0 8 4
Neighs:        27306.9 ave      101342 max           0 min
Histogram: 8 4 4 0 0 0 0 0 0 4
FullNghs:      54644.4 ave      197745 max           0 min
Histogram: 8 7 1 0 0 0 0 0 0 4

Total # of neighbors = 1092888
Ave neighs/atom = 820.48649
Ave special neighs/atom = 0.43243243
Neighbor list builds = 1
Dangerous builds = 0
  min_modify integrator eulerexplicit tmax 10.0 tmin 0.0 delaystep 5           dtgrow 1.1 dtshrink 0.5 alpha0 0.1 alphashrink 0.99           vdfmax 100000 halfstepback no initialdelay no
  unfix freeze

  # Electrostatic relaxation
  fix  swp feo atom/swap 1 1 ${rand} ${temp} ke no types 6 7
  fix  swp feo atom/swap 1 1 710414 ${temp} ke no types 6 7
  fix  swp feo atom/swap 1 1 710414 500000 ke no types 6 7
  thermo 1000
  thermo_style custom step v_ftemp v_cnum pe f_swp[1] f_swp[2] v_rfet3 v_rfeo3
  run ${nsteps}
  run 26244
PPPM initialization ...
  using 12-bit tables for long-range coulomb (../kspace.cpp:340)
  G vector (1/distance) = 0.28992484
  grid = 40 40 160
  stencil order = 5
  estimated absolute RMS force accuracy = 0.0003575219
  estimated relative force accuracy = 1.0766666e-06
  using double precision KISS FFT
  3d grid and FFT values/proc = 100920 46800
Per MPI rank memory allocation (min/avg/max) = 11.68 | 13.48 | 18.09 Mbytes
Step v_ftemp v_cnum PotEng f_swp[1] f_swp[2] v_rfet3 v_rfeo3 
  105079       500000          109   -209850.65            0            0            1   0.66666667 
  106000       500000          109   -208509.57          921          687            1   0.66666667 
  107000       500000          109   -208173.16         1921         1441            1   0.66666667 
  108000       500000          109   -208241.87         2921         2191            1   0.66666667 
  109000       500000          109   -207149.29         3921         2952            1   0.66666667 
  110000       500000          109   -208401.15         4921         3704            1   0.66666667 
  111000       500000          109   -207416.42         5921         4475            1   0.66666667 
  112000       500000          109   -208551.76         6921         5230            1   0.66666667 
  113000       500000          109   -208405.11         7921         6032            1   0.66666667 
  114000       500000          109   -207772.23         8921         6777            1   0.66666667 
  115000       500000          109   -207944.57         9921         7541            1   0.66666667 
  116000       500000          109   -208730.93        10921         8316            1   0.66666667 
  117000       500000          109    -207975.5        11921         9082            1   0.66666667 
  118000       500000          109   -208478.57        12921         9854            1   0.66666667 
  119000       500000          109   -208381.53        13921        10620            1   0.66666667 
  120000       500000          109   -208448.05        14921        11396            1   0.66666667 
  121000       500000          109   -208678.61        15921        12142            1   0.66666667 
  122000       500000          109   -208891.64        16921        12878            1   0.66666667 
  123000       500000          109   -208783.69        17921        13657            1   0.66666667 
  124000       500000          109   -209054.41        18921        14438            1   0.66666667 
  125000       500000          109   -208448.04        19921        15215            1   0.66666667 
  126000       500000          109   -207934.84        20921        15983            1   0.66666667 
  127000       500000          109   -207801.13        21921        16756            1   0.66666667 
  128000       500000          109   -207743.37        22921        17524            1   0.66666667 
  129000       500000          109   -208129.67        23921        18290            1   0.66666667 
  130000       500000          109   -208722.12        24921        19051            1   0.66666667 
  131000       500000          109   -208476.54        25921        19815            1   0.66666667 
  131323       500000          109   -208801.45        26244        20066            1   0.66666667 
Loop time of 1061.87 on 20 procs for 26244 steps with 1332 atoms

Performance: 1.068 ns/day, 22.479 hours/ns, 24.715 timesteps/s
99.3% CPU use with 20 MPI tasks x no OpenMP threads

MPI task timing breakdown:
Section |  min time  |  avg time  |  max time  |%varavg| %total
---------------------------------------------------------------
Pair    | 0.014267   | 13.343     | 47.564     | 477.3 |  1.26
Bond    | 0.016693   | 0.085755   | 0.20434    |  25.5 |  0.01
Kspace  | 164.09     | 198.37     | 211.91     | 124.3 | 18.68
Neigh   | 55.129     | 55.321     | 55.632     |   2.0 |  5.21
Comm    | 10.123     | 11.875     | 13.584     |  37.6 |  1.12
Output  | 0.0035319  | 0.0052996  | 0.007526   |   1.8 |  0.00
Modify  | 780.89     | 782.57     | 784.03     |   4.5 | 73.70
Other   |            | 0.2958     |            |       |  0.03

Nlocal:        66.6000 ave         216 max           0 min
Histogram: 8 0 8 0 0 0 0 0 0 4
Nghost:        2083.40 ave        3157 max         863 min
Histogram: 8 0 0 0 0 0 0 0 8 4
Neighs:        27323.5 ave      101232 max           0 min
Histogram: 8 4 4 0 0 0 0 0 0 4
FullNghs:      54644.4 ave      197745 max           0 min
Histogram: 8 7 1 0 0 0 0 0 0 4

Total # of neighbors = 1092888
Ave neighs/atom = 820.48649
Ave special neighs/atom = 0.43243243
Neighbor list builds = 52488
Dangerous builds = 0

  variable cnum equal (${cnum}-1)
  variable cnum equal (109-1)

  unfix swp
  thermo_style custom step temp pe
  write_data  001-dbt_3x3_${layer}L_fa_${type}_${cnum}_${temp}K.data
  write_data  001-dbt_3x3_17L_fa_${type}_${cnum}_${temp}K.data
  write_data  001-dbt_3x3_17L_fa_tet_full_${cnum}_${temp}K.data
  write_data  001-dbt_3x3_17L_fa_tet_full_108_${temp}K.data
  write_data  001-dbt_3x3_17L_fa_tet_full_108_500000K.data
System init for write_data ...
PPPM initialization ...
  using 12-bit tables for long-range coulomb (../kspace.cpp:340)
  G vector (1/distance) = 0.28992484
  grid = 40 40 160
  stencil order = 5
  estimated absolute RMS force accuracy = 0.0003575219
  estimated relative force accuracy = 1.0766666e-06
  using double precision KISS FFT
  3d grid and FFT values/proc = 100920 46800

next temp
jump SELF minimize_temp

  variable ftemp equal v_temp

  # Minimize top formate
  fix freeze immo_top_fa setforce 0.0 0.0 0.0
  minimize 1.0e-6 1.0e-9 1000 10000
PPPM initialization ...
  using 12-bit tables for long-range coulomb (../kspace.cpp:340)
  G vector (1/distance) = 0.28992484
  grid = 40 40 160
  stencil order = 5
  estimated absolute RMS force accuracy = 0.0003575219
  estimated relative force accuracy = 1.0766666e-06
  using double precision KISS FFT
  3d grid and FFT values/proc = 100920 46800
Per MPI rank memory allocation (min/avg/max) = 12.80 | 14.60 | 19.22 Mbytes
Step Temp PotEng 
  131323            0   -208801.45 
  131339            0   -208831.65 
Loop time of 0.288721 on 20 procs for 16 steps with 1332 atoms

99.2% CPU use with 20 MPI tasks x no OpenMP threads

Minimization stats:
  Stopping criterion = energy tolerance
  Energy initial, next-to-last, final = 
     -208801.454206527  -208831.558116309  -208831.646437846
  Force two-norm initial, final = 128.37259 13.054007
  Force max component initial, final = 49.184672 4.4598687
  Final line search alpha, max atom move = 0.0080039925 0.035696756
  Iterations, force evaluations = 16 30

MPI task timing breakdown:
Section |  min time  |  avg time  |  max time  |%varavg| %total
---------------------------------------------------------------
Pair    | 1.9433e-05 | 0.023919   | 0.085099   |  20.1 |  8.28
Bond    | 3.9174e-05 | 0.00013496 | 0.00030174 |   0.0 |  0.05
Kspace  | 0.19455    | 0.25574    | 0.2802     |   6.2 | 88.58
Neigh   | 0          | 0          | 0          |   0.0 |  0.00
Comm    | 0.0034938  | 0.0055858  | 0.0075244  |   2.0 |  1.93
Output  | 0          | 0          | 0          |   0.0 |  0.00
Modify  | 2.5726e-05 | 4.1393e-05 | 6.2532e-05 |   0.0 |  0.01
Other   |            | 0.003305   |            |       |  1.14

Nlocal:        66.6000 ave         216 max           0 min
Histogram: 8 0 8 0 0 0 0 0 0 4
Nghost:        2083.40 ave        3157 max         863 min
Histogram: 8 0 0 0 0 0 0 0 8 4
Neighs:        27323.5 ave      101232 max           0 min
Histogram: 8 4 4 0 0 0 0 0 0 4
FullNghs:      54644.4 ave      197745 max           0 min
Histogram: 8 7 1 0 0 0 0 0 0 4

Total # of neighbors = 1092888
Ave neighs/atom = 820.48649
Ave special neighs/atom = 0.43243243
Neighbor list builds = 0
Dangerous builds = 0
  min_modify integrator eulerexplicit tmax 10.0 tmin 0.0 delaystep 5           dtgrow 1.1 dtshrink 0.5 alpha0 0.1 alphashrink 0.99           vdfmax 100000 halfstepback no initialdelay no
  unfix freeze

  # Minimize top ho
  fix freeze immo_top_ho setforce 0.0 0.0 0.0
  minimize 1.0e-6 1.0e-9 1000 10000
PPPM initialization ...
  using 12-bit tables for long-range coulomb (../kspace.cpp:340)
  G vector (1/distance) = 0.28992484
  grid = 40 40 160
  stencil order = 5
  estimated absolute RMS force accuracy = 0.0003575219
  estimated relative force accuracy = 1.0766666e-06
  using double precision KISS FFT
  3d grid and FFT values/proc = 100920 46800
Per MPI rank memory allocation (min/avg/max) = 12.80 | 14.60 | 19.22 Mbytes
Step Temp PotEng 
  131339            0   -208831.65 
  131349            0   -208906.39 
Loop time of 0.196113 on 20 procs for 10 steps with 1332 atoms

99.6% CPU use with 20 MPI tasks x no OpenMP threads

Minimization stats:
  Stopping criterion = energy tolerance
  Energy initial, next-to-last, final = 
     -208831.646437846  -208906.322900367  -208906.388235576
  Force two-norm initial, final = 284.23083 10.003193
  Force max component initial, final = 73.718589 2.6573462
  Final line search alpha, max atom move = 0.037840419 0.10055509
  Iterations, force evaluations = 10 20

MPI task timing breakdown:
Section |  min time  |  avg time  |  max time  |%varavg| %total
---------------------------------------------------------------
Pair    | 1.6299e-05 | 0.016233   | 0.057498   |  16.6 |  8.28
Bond    | 2.9371e-05 | 9.3403e-05 | 0.00021768 |   0.0 |  0.05
Kspace  | 0.13224    | 0.1735     | 0.1901     |   5.1 | 88.47
Neigh   | 0          | 0          | 0          |   0.0 |  0.00
Comm    | 0.002482   | 0.0039101  | 0.005237   |   1.6 |  1.99
Output  | 0          | 0          | 0          |   0.0 |  0.00
Modify  | 1.8693e-05 | 2.9497e-05 | 4.3585e-05 |   0.0 |  0.02
Other   |            | 0.002344   |            |       |  1.20

Nlocal:        66.6000 ave         216 max           0 min
Histogram: 8 0 8 0 0 0 0 0 0 4
Nghost:        2081.75 ave        3155 max         861 min
Histogram: 8 0 0 0 0 0 0 0 8 4
Neighs:        27320.7 ave      101237 max           0 min
Histogram: 8 4 4 0 0 0 0 0 0 4
FullNghs:      54644.4 ave      197745 max           0 min
Histogram: 8 7 1 0 0 0 0 0 0 4

Total # of neighbors = 1092888
Ave neighs/atom = 820.48649
Ave special neighs/atom = 0.43243243
Neighbor list builds = 0
Dangerous builds = 0
  min_modify integrator eulerexplicit tmax 10.0 tmin 0.0 delaystep 5           dtgrow 1.1 dtshrink 0.5 alpha0 0.1 alphashrink 0.99           vdfmax 100000 halfstepback no initialdelay no
  unfix freeze

  # Minimize bottom formate
  fix freeze immo_bottom_fa setforce 0.0 0.0 0.0
  minimize 1.0e-6 1.0e-9 1000 10000
PPPM initialization ...
  using 12-bit tables for long-range coulomb (../kspace.cpp:340)
  G vector (1/distance) = 0.28992484
  grid = 40 40 160
  stencil order = 5
  estimated absolute RMS force accuracy = 0.0003575219
  estimated relative force accuracy = 1.0766666e-06
  using double precision KISS FFT
  3d grid and FFT values/proc = 100920 46800
Per MPI rank memory allocation (min/avg/max) = 12.80 | 14.60 | 19.22 Mbytes
Step Temp PotEng 
  131349            0   -208906.39 
  131365            0      -208937 
Loop time of 0.2966 on 20 procs for 16 steps with 1332 atoms

99.3% CPU use with 20 MPI tasks x no OpenMP threads

Minimization stats:
  Stopping criterion = energy tolerance
  Energy initial, next-to-last, final = 
     -208906.388235576  -208936.901280686  -208937.000007933
  Force two-norm initial, final = 130.44567 12.655324
  Force max component initial, final = 52.979227 3.6920313
  Final line search alpha, max atom move = 0.0076195674 0.028131681
  Iterations, force evaluations = 16 31

MPI task timing breakdown:
Section |  min time  |  avg time  |  max time  |%varavg| %total
---------------------------------------------------------------
Pair    | 1.9793e-05 | 0.024689   | 0.087874   |  20.5 |  8.32
Bond    | 3.9163e-05 | 0.00014466 | 0.00032488 |   0.0 |  0.05
Kspace  | 0.19926    | 0.26242    | 0.28766    |   6.3 | 88.48
Neigh   | 0          | 0          | 0          |   0.0 |  0.00
Comm    | 0.0037106  | 0.0059079  | 0.0079696  |   2.1 |  1.99
Output  | 0          | 0          | 0          |   0.0 |  0.00
Modify  | 2.9888e-05 | 4.556e-05  | 6.4022e-05 |   0.0 |  0.02
Other   |            | 0.003392   |            |       |  1.14

Nlocal:        66.6000 ave         216 max           0 min
Histogram: 8 0 8 0 0 0 0 0 0 4
Nghost:        2081.75 ave        3155 max         861 min
Histogram: 8 0 0 0 0 0 0 0 8 4
Neighs:        27321.7 ave      101247 max           0 min
Histogram: 8 4 4 0 0 0 0 0 0 4
FullNghs:      54644.4 ave      197745 max           0 min
Histogram: 8 7 1 0 0 0 0 0 0 4

Total # of neighbors = 1092888
Ave neighs/atom = 820.48649
Ave special neighs/atom = 0.43243243
Neighbor list builds = 0
Dangerous builds = 0
  min_modify integrator eulerexplicit tmax 10.0 tmin 0.0 delaystep 5           dtgrow 1.1 dtshrink 0.5 alpha0 0.1 alphashrink 0.99           vdfmax 100000 halfstepback no initialdelay no
  unfix freeze

  # Minimize bottom ho
  fix freeze immo_bottom_ho setforce 0.0 0.0 0.0
  minimize 1.0e-6 1.0e-9 1000 10000
PPPM initialization ...
  using 12-bit tables for long-range coulomb (../kspace.cpp:340)
  G vector (1/distance) = 0.28992484
  grid = 40 40 160
  stencil order = 5
  estimated absolute RMS force accuracy = 0.0003575219
  estimated relative force accuracy = 1.0766666e-06
  using double precision KISS FFT
  3d grid and FFT values/proc = 100920 46800
Per MPI rank memory allocation (min/avg/max) = 12.80 | 14.60 | 19.22 Mbytes
Step Temp PotEng 
  131365            0      -208937 
  131375            0   -208988.91 
Loop time of 0.19558 on 20 procs for 10 steps with 1332 atoms

99.3% CPU use with 20 MPI tasks x no OpenMP threads

Minimization stats:
  Stopping criterion = energy tolerance
  Energy initial, next-to-last, final = 
     -208937.000007933  -208988.842329491  -208988.909652934
  Force two-norm initial, final = 232.67656 10.593034
  Force max component initial, final = 54.317518 2.3649897
  Final line search alpha, max atom move = 0.054242761 0.12828357
  Iterations, force evaluations = 10 20

MPI task timing breakdown:
Section |  min time  |  avg time  |  max time  |%varavg| %total
---------------------------------------------------------------
Pair    | 1.4594e-05 | 0.016199   | 0.057483   |  16.6 |  8.28
Bond    | 2.6705e-05 | 9.2398e-05 | 0.00020841 |   0.0 |  0.05
Kspace  | 0.13178    | 0.17305    | 0.18961    |   5.1 | 88.48
Neigh   | 0          | 0          | 0          |   0.0 |  0.00
Comm    | 0.0024393  | 0.0038614  | 0.005216   |   1.7 |  1.97
Output  | 0          | 0          | 0          |   0.0 |  0.00
Modify  | 1.9136e-05 | 2.9297e-05 | 4.4868e-05 |   0.0 |  0.01
Other   |            | 0.00235    |            |       |  1.20

Nlocal:        66.6000 ave         216 max           0 min
Histogram: 8 0 8 0 0 0 0 0 0 4
Nghost:        2081.75 ave        3155 max         861 min
Histogram: 8 0 0 0 0 0 0 0 8 4
Neighs:        27315.8 ave      101312 max           0 min
Histogram: 8 4 4 0 0 0 0 0 0 4
FullNghs:      54644.4 ave      197745 max           0 min
Histogram: 8 7 1 0 0 0 0 0 0 4

Total # of neighbors = 1092888
Ave neighs/atom = 820.48649
Ave special neighs/atom = 0.43243243
Neighbor list builds = 0
Dangerous builds = 0
  min_modify integrator eulerexplicit tmax 10.0 tmin 0.0 delaystep 5           dtgrow 1.1 dtshrink 0.5 alpha0 0.1 alphashrink 0.99           vdfmax 100000 halfstepback no initialdelay no
  unfix freeze

  # Electrostatic relaxation
  fix  swp feo atom/swap 1 1 ${rand} ${temp} ke no types 6 7
  fix  swp feo atom/swap 1 1 755762 ${temp} ke no types 6 7
  fix  swp feo atom/swap 1 1 755762 450000 ke no types 6 7
  thermo 1000
  thermo_style custom step v_ftemp v_cnum pe f_swp[1] f_swp[2] v_rfet3 v_rfeo3
  run ${nsteps}
  run 26244
PPPM initialization ...
  using 12-bit tables for long-range coulomb (../kspace.cpp:340)
  G vector (1/distance) = 0.28992484
  grid = 40 40 160
  stencil order = 5
  estimated absolute RMS force accuracy = 0.0003575219
  estimated relative force accuracy = 1.0766666e-06
  using double precision KISS FFT
  3d grid and FFT values/proc = 100920 46800
Per MPI rank memory allocation (min/avg/max) = 11.68 | 13.48 | 18.09 Mbytes
Step v_ftemp v_cnum PotEng f_swp[1] f_swp[2] v_rfet3 v_rfeo3 
  131375       450000          108   -208988.91            0            0            1   0.66666667 
  132000       450000          108   -208642.77          625          479            1   0.66666667 
  133000       450000          108   -208406.29         1625         1237            1   0.66666667 
  134000       450000          108   -208209.27         2625         2004            1   0.66666667 
  135000       450000          108    -208166.7         3625         2776            1   0.66666667 
  136000       450000          108   -208274.07         4625         3520            1   0.66666667 
  137000       450000          108   -208311.68         5625         4289            1   0.66666667 
  138000       450000          108   -207752.73         6625         5041            1   0.66666667 
  139000       450000          108   -208534.73         7625         5802            1   0.66666667 
  140000       450000          108   -208363.91         8625         6560            1   0.66666667 
  141000       450000          108   -207598.39         9625         7318            1   0.66666667 
  142000       450000          108   -208771.66        10625         8029            1   0.66666667 
  143000       450000          108   -208480.12        11625         8791            1   0.66666667 
  144000       450000          108   -207657.63        12625         9541            1   0.66666667 
  145000       450000          108   -208163.44        13625        10315            1   0.66666667 
  146000       450000          108   -208467.33        14625        11068            1   0.66666667 
  147000       450000          108   -208760.66        15625        11835            1   0.66666667 
  148000       450000          108   -207589.91        16625        12575            1   0.66666667 
  149000       450000          108   -208048.04        17625        13347            1   0.66666667 
  150000       450000          108   -208938.16        18625        14102            1   0.66666667 
  151000       450000          108   -208435.66        19625        14845            1   0.66666667 
  152000       450000          108    -208128.7        20625        15630            1   0.66666667 
  153000       450000          108    -208409.2        21625        16387            1   0.66666667 
  154000       450000          108   -208459.99        22625        17140            1   0.66666667 
  155000       450000          108   -208135.89        23625        17911            1   0.66666667 
  156000       450000          108   -207731.67        24625        18684            1   0.66666667 
  157000       450000          108   -208140.97        25625        19464            1   0.66666667 
  157619       450000          108   -208593.87        26244        19929            1   0.66666667 
Loop time of 1062.07 on 20 procs for 26244 steps with 1332 atoms

Performance: 1.067 ns/day, 22.483 hours/ns, 24.710 timesteps/s
99.3% CPU use with 20 MPI tasks x no OpenMP threads

MPI task timing breakdown:
Section |  min time  |  avg time  |  max time  |%varavg| %total
---------------------------------------------------------------
Pair    | 0.014275   | 13.35      | 47.682     | 477.8 |  1.26
Bond    | 0.017625   | 0.08924    | 0.22452    |  26.5 |  0.01
Kspace  | 163.94     | 198.33     | 211.89     | 124.5 | 18.67
Neigh   | 55.002     | 55.203     | 55.515     |   2.1 |  5.20
Comm    | 10.189     | 11.959     | 13.705     |  37.9 |  1.13
Output  | 0.0031801  | 0.005011   | 0.0072862  |   1.9 |  0.00
Modify  | 781.13     | 782.84     | 784.32     |   4.5 | 73.71
Other   |            | 0.2965     |            |       |  0.03

Nlocal:        66.6000 ave         216 max           0 min
Histogram: 8 0 8 0 0 0 0 0 0 4
Nghost:        2081.75 ave        3155 max         861 min
Histogram: 8 0 0 0 0 0 0 0 8 4
Neighs:        27315.0 ave      101304 max           0 min
Histogram: 8 4 4 0 0 0 0 0 0 4
FullNghs:      54644.4 ave      197745 max           0 min
Histogram: 8 7 1 0 0 0 0 0 0 4

Total # of neighbors = 1092888
Ave neighs/atom = 820.48649
Ave special neighs/atom = 0.43243243
Neighbor list builds = 52488
Dangerous builds = 0

  variable cnum equal (${cnum}-1)
  variable cnum equal (108-1)

  unfix swp
  thermo_style custom step temp pe
  write_data  001-dbt_3x3_${layer}L_fa_${type}_${cnum}_${temp}K.data
  write_data  001-dbt_3x3_17L_fa_${type}_${cnum}_${temp}K.data
  write_data  001-dbt_3x3_17L_fa_tet_full_${cnum}_${temp}K.data
  write_data  001-dbt_3x3_17L_fa_tet_full_107_${temp}K.data
  write_data  001-dbt_3x3_17L_fa_tet_full_107_450000K.data
System init for write_data ...
PPPM initialization ...
  using 12-bit tables for long-range coulomb (../kspace.cpp:340)
  G vector (1/distance) = 0.28992484
  grid = 40 40 160
  stencil order = 5
  estimated absolute RMS force accuracy = 0.0003575219
  estimated relative force accuracy = 1.0766666e-06
  using double precision KISS FFT
  3d grid and FFT values/proc = 100920 46800

next temp
jump SELF minimize_temp

  variable ftemp equal v_temp

  # Minimize top formate
  fix freeze immo_top_fa setforce 0.0 0.0 0.0
  minimize 1.0e-6 1.0e-9 1000 10000
PPPM initialization ...
  using 12-bit tables for long-range coulomb (../kspace.cpp:340)
  G vector (1/distance) = 0.28992484
  grid = 40 40 160
  stencil order = 5
  estimated absolute RMS force accuracy = 0.0003575219
  estimated relative force accuracy = 1.0766666e-06
  using double precision KISS FFT
  3d grid and FFT values/proc = 100920 46800
Per MPI rank memory allocation (min/avg/max) = 12.80 | 14.60 | 19.22 Mbytes
Step Temp PotEng 
  157619            0   -208593.87 
  157640            0   -208631.86 
Loop time of 0.39075 on 20 procs for 21 steps with 1332 atoms

99.2% CPU use with 20 MPI tasks x no OpenMP threads

Minimization stats:
  Stopping criterion = energy tolerance
  Energy initial, next-to-last, final = 
     -208593.868032316  -208631.712925189  -208631.858337974
  Force two-norm initial, final = 119.99832 14.245952
  Force max component initial, final = 43.751998 5.0338161
  Final line search alpha, max atom move = 0.0043066927 0.021679099
  Iterations, force evaluations = 21 41

MPI task timing breakdown:
Section |  min time  |  avg time  |  max time  |%varavg| %total
---------------------------------------------------------------
Pair    | 2.613e-05  | 0.032383   | 0.11542    |  23.5 |  8.29
Bond    | 5.2979e-05 | 0.00018346 | 0.00040283 |   0.0 |  0.05
Kspace  | 0.26299    | 0.346      | 0.37914    |   7.2 | 88.55
Neigh   | 0          | 0          | 0          |   0.0 |  0.00
Comm    | 0.004843   | 0.007746   | 0.010435   |   2.4 |  1.98
Output  | 0          | 0          | 0          |   0.0 |  0.00
Modify  | 4.1369e-05 | 6.1193e-05 | 8.8888e-05 |   0.0 |  0.02
Other   |            | 0.004374   |            |       |  1.12

Nlocal:        66.6000 ave         216 max           0 min
Histogram: 8 0 8 0 0 0 0 0 0 4
Nghost:        2081.75 ave        3155 max         861 min
Histogram: 8 0 0 0 0 0 0 0 8 4
Neighs:        27315.0 ave      101304 max           0 min
Histogram: 8 4 4 0 0 0 0 0 0 4
FullNghs:      54644.4 ave      197745 max           0 min
Histogram: 8 7 1 0 0 0 0 0 0 4

Total # of neighbors = 1092888
Ave neighs/atom = 820.48649
Ave special neighs/atom = 0.43243243
Neighbor list builds = 0
Dangerous builds = 0
  min_modify integrator eulerexplicit tmax 10.0 tmin 0.0 delaystep 5           dtgrow 1.1 dtshrink 0.5 alpha0 0.1 alphashrink 0.99           vdfmax 100000 halfstepback no initialdelay no
  unfix freeze

  # Minimize top ho
  fix freeze immo_top_ho setforce 0.0 0.0 0.0
  minimize 1.0e-6 1.0e-9 1000 10000
PPPM initialization ...
  using 12-bit tables for long-range coulomb (../kspace.cpp:340)
  G vector (1/distance) = 0.28992484
  grid = 40 40 160
  stencil order = 5
  estimated absolute RMS force accuracy = 0.0003575219
  estimated relative force accuracy = 1.0766666e-06
  using double precision KISS FFT
  3d grid and FFT values/proc = 100920 46800
Per MPI rank memory allocation (min/avg/max) = 12.80 | 14.60 | 19.22 Mbytes
Step Temp PotEng 
  157640            0   -208631.86 
  157650            0   -208688.86 
Loop time of 0.195617 on 20 procs for 10 steps with 1332 atoms

99.4% CPU use with 20 MPI tasks x no OpenMP threads

Minimization stats:
  Stopping criterion = energy tolerance
  Energy initial, next-to-last, final = 
     -208631.858337974   -208688.78354354  -208688.861869166
  Force two-norm initial, final = 246.27905 10.888087
  Force max component initial, final = 70.760567 2.2299715
  Final line search alpha, max atom move = 0.047203380 0.10526219
  Iterations, force evaluations = 10 20

MPI task timing breakdown:
Section |  min time  |  avg time  |  max time  |%varavg| %total
---------------------------------------------------------------
Pair    | 1.7299e-05 | 0.016249   | 0.057654   |  16.6 |  8.31
Bond    | 2.6916e-05 | 9.1223e-05 | 0.00020617 |   0.0 |  0.05
Kspace  | 0.13161    | 0.17299    | 0.18961    |   5.1 | 88.44
Neigh   | 0          | 0          | 0          |   0.0 |  0.00
Comm    | 0.0023903  | 0.0038536  | 0.0052508  |   1.7 |  1.97
Output  | 0          | 0          | 0          |   0.0 |  0.00
Modify  | 1.9217e-05 | 2.9739e-05 | 4.1242e-05 |   0.0 |  0.02
Other   |            | 0.002399   |            |       |  1.23

Nlocal:        66.6000 ave         216 max           0 min
Histogram: 8 0 8 0 0 0 0 0 0 4
Nghost:        2084.00 ave        3159 max         863 min
Histogram: 8 0 0 0 0 0 0 0 8 4
Neighs:        27313.5 ave      101323 max           0 min
Histogram: 9 3 4 0 0 0 0 0 0 4
FullNghs:      54644.4 ave      197745 max           0 min
Histogram: 8 7 1 0 0 0 0 0 0 4

Total # of neighbors = 1092888
Ave neighs/atom = 820.48649
Ave special neighs/atom = 0.43243243
Neighbor list builds = 0
Dangerous builds = 0
  min_modify integrator eulerexplicit tmax 10.0 tmin 0.0 delaystep 5           dtgrow 1.1 dtshrink 0.5 alpha0 0.1 alphashrink 0.99           vdfmax 100000 halfstepback no initialdelay no
  unfix freeze

  # Minimize bottom formate
  fix freeze immo_bottom_fa setforce 0.0 0.0 0.0
  minimize 1.0e-6 1.0e-9 1000 10000
PPPM initialization ...
  using 12-bit tables for long-range coulomb (../kspace.cpp:340)
  G vector (1/distance) = 0.28992484
  grid = 40 40 160
  stencil order = 5
  estimated absolute RMS force accuracy = 0.0003575219
  estimated relative force accuracy = 1.0766666e-06
  using double precision KISS FFT
  3d grid and FFT values/proc = 100920 46800
Per MPI rank memory allocation (min/avg/max) = 12.80 | 14.60 | 19.22 Mbytes
Step Temp PotEng 
  157650            0   -208688.86 
  157673            0   -208729.96 
Loop time of 0.428423 on 20 procs for 23 steps with 1332 atoms

99.3% CPU use with 20 MPI tasks x no OpenMP threads

Minimization stats:
  Stopping criterion = energy tolerance
  Energy initial, next-to-last, final = 
     -208688.861869166  -208729.792044128  -208729.955432001
  Force two-norm initial, final = 125.90468 21.412848
  Force max component initial, final = 46.959463 11.825287
  Final line search alpha, max atom move = 0.0097520540 0.11532084
  Iterations, force evaluations = 23 45

MPI task timing breakdown:
Section |  min time  |  avg time  |  max time  |%varavg| %total
---------------------------------------------------------------
Pair    | 3.1577e-05 | 0.035433   | 0.12661    |  24.6 |  8.27
Bond    | 5.6602e-05 | 0.00019961 | 0.00045777 |   0.0 |  0.05
Kspace  | 0.2884     | 0.37954    | 0.41578    |   7.5 | 88.59
Neigh   | 0          | 0          | 0          |   0.0 |  0.00
Comm    | 0.0053527  | 0.0085198  | 0.011505   |   2.5 |  1.99
Output  | 0          | 0          | 0          |   0.0 |  0.00
Modify  | 4.2242e-05 | 6.3194e-05 | 8.7565e-05 |   0.0 |  0.01
Other   |            | 0.004667   |            |       |  1.09

Nlocal:        66.6000 ave         216 max           0 min
Histogram: 8 0 8 0 0 0 0 0 0 4
Nghost:        2084.00 ave        3159 max         863 min
Histogram: 8 0 0 0 0 0 0 0 8 4
Neighs:        27314.6 ave      101324 max           0 min
Histogram: 9 3 4 0 0 0 0 0 0 4
FullNghs:      54644.4 ave      197745 max           0 min
Histogram: 8 7 1 0 0 0 0 0 0 4

Total # of neighbors = 1092888
Ave neighs/atom = 820.48649
Ave special neighs/atom = 0.43243243
Neighbor list builds = 0
Dangerous builds = 0
  min_modify integrator eulerexplicit tmax 10.0 tmin 0.0 delaystep 5           dtgrow 1.1 dtshrink 0.5 alpha0 0.1 alphashrink 0.99           vdfmax 100000 halfstepback no initialdelay no
  unfix freeze

  # Minimize bottom ho
  fix freeze immo_bottom_ho setforce 0.0 0.0 0.0
  minimize 1.0e-6 1.0e-9 1000 10000
PPPM initialization ...
  using 12-bit tables for long-range coulomb (../kspace.cpp:340)
  G vector (1/distance) = 0.28992484
  grid = 40 40 160
  stencil order = 5
  estimated absolute RMS force accuracy = 0.0003575219
  estimated relative force accuracy = 1.0766666e-06
  using double precision KISS FFT
  3d grid and FFT values/proc = 100920 46800
Per MPI rank memory allocation (min/avg/max) = 12.80 | 14.60 | 19.22 Mbytes
Step Temp PotEng 
  157673            0   -208729.96 
  157683            0   -208802.32 
Loop time of 0.195741 on 20 procs for 10 steps with 1332 atoms

99.4% CPU use with 20 MPI tasks x no OpenMP threads

Minimization stats:
  Stopping criterion = energy tolerance
  Energy initial, next-to-last, final = 
     -208729.955432001  -208802.229336593  -208802.321896529
  Force two-norm initial, final = 273.42378 12.047930
  Force max component initial, final = 63.926662 2.6432405
  Final line search alpha, max atom move = 0.024537798 0.064859300
  Iterations, force evaluations = 10 20

MPI task timing breakdown:
Section |  min time  |  avg time  |  max time  |%varavg| %total
---------------------------------------------------------------
Pair    | 1.7847e-05 | 0.01626    | 0.057757   |  16.6 |  8.31
Bond    | 2.6167e-05 | 9.1577e-05 | 0.00019833 |   0.0 |  0.05
Kspace  | 0.13157    | 0.17306    | 0.18967    |   5.1 | 88.41
Neigh   | 0          | 0          | 0          |   0.0 |  0.00
Comm    | 0.0024635  | 0.0038957  | 0.0052762  |   1.7 |  1.99
Output  | 0          | 0          | 0          |   0.0 |  0.00
Modify  | 1.7841e-05 | 2.9963e-05 | 5.4433e-05 |   0.0 |  0.02
Other   |            | 0.002408   |            |       |  1.23

Nlocal:        66.6000 ave         216 max           0 min
Histogram: 8 0 8 0 0 0 0 0 0 4
Nghost:        2083.10 ave        3159 max         862 min
Histogram: 8 0 0 0 0 0 0 0 8 4
Neighs:        27311.4 ave      101345 max           0 min
Histogram: 9 3 4 0 0 0 0 0 0 4
FullNghs:      54644.4 ave      197745 max           0 min
Histogram: 8 7 1 0 0 0 0 0 0 4

Total # of neighbors = 1092888
Ave neighs/atom = 820.48649
Ave special neighs/atom = 0.43243243
Neighbor list builds = 0
Dangerous builds = 0
  min_modify integrator eulerexplicit tmax 10.0 tmin 0.0 delaystep 5           dtgrow 1.1 dtshrink 0.5 alpha0 0.1 alphashrink 0.99           vdfmax 100000 halfstepback no initialdelay no
  unfix freeze

  # Electrostatic relaxation
  fix  swp feo atom/swap 1 1 ${rand} ${temp} ke no types 6 7
  fix  swp feo atom/swap 1 1 4574249 ${temp} ke no types 6 7
  fix  swp feo atom/swap 1 1 4574249 405000 ke no types 6 7
  thermo 1000
  thermo_style custom step v_ftemp v_cnum pe f_swp[1] f_swp[2] v_rfet3 v_rfeo3
  run ${nsteps}
  run 26244
PPPM initialization ...
  using 12-bit tables for long-range coulomb (../kspace.cpp:340)
  G vector (1/distance) = 0.28992484
  grid = 40 40 160
  stencil order = 5
  estimated absolute RMS force accuracy = 0.0003575219
  estimated relative force accuracy = 1.0766666e-06
  using double precision KISS FFT
  3d grid and FFT values/proc = 100920 46800
Per MPI rank memory allocation (min/avg/max) = 11.68 | 13.48 | 18.09 Mbytes
Step v_ftemp v_cnum PotEng f_swp[1] f_swp[2] v_rfet3 v_rfeo3 
  157683       405000          107   -208802.32            0            0            1   0.66666667 
  158000       405000          107    -208243.5          317          254            1   0.66666667 
  159000       405000          107   -207682.71         1317          991            1   0.66666667 
  160000       405000          107   -208345.07         2317         1774            1   0.66666667 
  161000       405000          107   -208222.13         3317         2541            1   0.66666667 
  162000       405000          107   -208086.32         4317         3331            1   0.66666667 
  163000       405000          107    -208667.1         5317         4075            1   0.66666667 
  164000       405000          107   -208550.61         6317         4833            1   0.66666667 
  165000       405000          107   -208653.96         7317         5594            1   0.66666667 
  166000       405000          107   -207745.94         8317         6371            1   0.66666667 
  167000       405000          107   -208616.67         9317         7159            1   0.66666667 
  168000       405000          107   -208229.64        10317         7913            1   0.66666667 
  169000       405000          107   -208250.81        11317         8673            1   0.66666667 
  170000       405000          107   -208132.87        12317         9426            1   0.66666667 
  171000       405000          107   -208305.74        13317        10176            1   0.66666667 
  172000       405000          107   -208645.99        14317        10930            1   0.66666667 
  173000       405000          107   -208384.57        15317        11670            1   0.66666667 
  174000       405000          107    -208154.6        16317        12430            1   0.66666667 
  175000       405000          107   -208155.95        17317        13180            1   0.66666667 
  176000       405000          107   -207937.41        18317        13923            1   0.66666667 
  177000       405000          107   -208449.49        19317        14670            1   0.66666667 
  178000       405000          107   -208633.63        20317        15400            1   0.66666667 
  179000       405000          107   -207915.88        21317        16163            1   0.66666667 
  180000       405000          107   -208350.37        22317        16949            1   0.66666667 
  181000       405000          107    -208664.3        23317        17707            1   0.66666667 
  182000       405000          107   -208603.21        24317        18487            1   0.66666667 
  183000       405000          107   -207919.51        25317        19241            1   0.66666667 
  183927       405000          107   -208769.49        26244        19946            1   0.66666667 
Loop time of 1066.36 on 20 procs for 26244 steps with 1332 atoms

Performance: 1.063 ns/day, 22.574 hours/ns, 24.611 timesteps/s
99.4% CPU use with 20 MPI tasks x no OpenMP threads

MPI task timing breakdown:
Section |  min time  |  avg time  |  max time  |%varavg| %total
---------------------------------------------------------------
Pair    | 0.014667   | 13.327     | 47.514     | 477.2 |  1.25
Bond    | 0.017834   | 0.088642   | 0.20801    |  26.1 |  0.01
Kspace  | 164.63     | 198.88     | 212.41     | 124.1 | 18.65
Neigh   | 55.153     | 55.348     | 55.65      |   2.0 |  5.19
Comm    | 10.236     | 12.002     | 13.752     |  38.1 |  1.13
Output  | 0.0035362  | 0.0053765  | 0.0076649  |   1.9 |  0.00
Modify  | 784.7      | 786.41     | 787.89     |   4.6 | 73.75
Other   |            | 0.3059     |            |       |  0.03

Nlocal:        66.6000 ave         216 max           0 min
Histogram: 8 0 8 0 0 0 0 0 0 4
Nghost:        2083.10 ave        3159 max         862 min
Histogram: 8 0 0 0 0 0 0 0 8 4
Neighs:        27313.4 ave      101350 max           0 min
Histogram: 9 3 4 0 0 0 0 0 0 4
FullNghs:      54644.4 ave      197745 max           0 min
Histogram: 8 7 1 0 0 0 0 0 0 4

Total # of neighbors = 1092888
Ave neighs/atom = 820.48649
Ave special neighs/atom = 0.43243243
Neighbor list builds = 52488
Dangerous builds = 0

  variable cnum equal (${cnum}-1)
  variable cnum equal (107-1)

  unfix swp
  thermo_style custom step temp pe
  write_data  001-dbt_3x3_${layer}L_fa_${type}_${cnum}_${temp}K.data
  write_data  001-dbt_3x3_17L_fa_${type}_${cnum}_${temp}K.data
  write_data  001-dbt_3x3_17L_fa_tet_full_${cnum}_${temp}K.data
  write_data  001-dbt_3x3_17L_fa_tet_full_106_${temp}K.data
  write_data  001-dbt_3x3_17L_fa_tet_full_106_405000K.data
System init for write_data ...
PPPM initialization ...
  using 12-bit tables for long-range coulomb (../kspace.cpp:340)
  G vector (1/distance) = 0.28992484
  grid = 40 40 160
  stencil order = 5
  estimated absolute RMS force accuracy = 0.0003575219
  estimated relative force accuracy = 1.0766666e-06
  using double precision KISS FFT
  3d grid and FFT values/proc = 100920 46800

next temp
jump SELF minimize_temp

  variable ftemp equal v_temp

  # Minimize top formate
  fix freeze immo_top_fa setforce 0.0 0.0 0.0
  minimize 1.0e-6 1.0e-9 1000 10000
PPPM initialization ...
  using 12-bit tables for long-range coulomb (../kspace.cpp:340)
  G vector (1/distance) = 0.28992484
  grid = 40 40 160
  stencil order = 5
  estimated absolute RMS force accuracy = 0.0003575219
  estimated relative force accuracy = 1.0766666e-06
  using double precision KISS FFT
  3d grid and FFT values/proc = 100920 46800
Per MPI rank memory allocation (min/avg/max) = 12.80 | 14.60 | 19.22 Mbytes
Step Temp PotEng 
  183927            0   -208769.49 
  183941            0   -208786.12 
Loop time of 0.259839 on 20 procs for 14 steps with 1332 atoms

99.4% CPU use with 20 MPI tasks x no OpenMP threads

Minimization stats:
  Stopping criterion = energy tolerance
  Energy initial, next-to-last, final = 
     -208769.486438567   -208785.97817549  -208786.123268482
  Force two-norm initial, final = 79.685401 15.800752
  Force max component initial, final = 31.045029 4.4037239
  Final line search alpha, max atom move = 0.0042799720 0.018847815
  Iterations, force evaluations = 14 27

MPI task timing breakdown:
Section |  min time  |  avg time  |  max time  |%varavg| %total
---------------------------------------------------------------
Pair    | 2.1201e-05 | 0.021605   | 0.076724   |  19.2 |  8.31
Bond    | 3.5383e-05 | 0.00012221 | 0.00026714 |   0.0 |  0.05
Kspace  | 0.17471    | 0.22983    | 0.25193    |   5.9 | 88.45
Neigh   | 0          | 0          | 0          |   0.0 |  0.00
Comm    | 0.0032873  | 0.0051937  | 0.006983   |   1.9 |  2.00
Output  | 0          | 0          | 0          |   0.0 |  0.00
Modify  | 2.5035e-05 | 3.9271e-05 | 7.1835e-05 |   0.0 |  0.02
Other   |            | 0.003054   |            |       |  1.18

Nlocal:        66.6000 ave         216 max           0 min
Histogram: 8 0 8 0 0 0 0 0 0 4
Nghost:        2083.10 ave        3159 max         862 min
Histogram: 8 0 0 0 0 0 0 0 8 4
Neighs:        27313.4 ave      101350 max           0 min
Histogram: 9 3 4 0 0 0 0 0 0 4
FullNghs:      54644.4 ave      197745 max           0 min
Histogram: 8 7 1 0 0 0 0 0 0 4

Total # of neighbors = 1092888
Ave neighs/atom = 820.48649
Ave special neighs/atom = 0.43243243
Neighbor list builds = 0
Dangerous builds = 0
  min_modify integrator eulerexplicit tmax 10.0 tmin 0.0 delaystep 5           dtgrow 1.1 dtshrink 0.5 alpha0 0.1 alphashrink 0.99           vdfmax 100000 halfstepback no initialdelay no
  unfix freeze

  # Minimize top ho
  fix freeze immo_top_ho setforce 0.0 0.0 0.0
  minimize 1.0e-6 1.0e-9 1000 10000
PPPM initialization ...
  using 12-bit tables for long-range coulomb (../kspace.cpp:340)
  G vector (1/distance) = 0.28992484
  grid = 40 40 160
  stencil order = 5
  estimated absolute RMS force accuracy = 0.0003575219
  estimated relative force accuracy = 1.0766666e-06
  using double precision KISS FFT
  3d grid and FFT values/proc = 100920 46800
Per MPI rank memory allocation (min/avg/max) = 12.80 | 14.60 | 19.22 Mbytes
Step Temp PotEng 
  183941            0   -208786.12 
  183951            0   -208835.16 
Loop time of 0.195792 on 20 procs for 10 steps with 1332 atoms

99.4% CPU use with 20 MPI tasks x no OpenMP threads

Minimization stats:
  Stopping criterion = energy tolerance
  Energy initial, next-to-last, final = 
     -208786.123268482   -208835.12348542  -208835.161721021
  Force two-norm initial, final = 231.63567 7.6990631
  Force max component initial, final = 68.114747 1.5203871
  Final line search alpha, max atom move = 0.053529940 0.081386229
  Iterations, force evaluations = 10 20

MPI task timing breakdown:
Section |  min time  |  avg time  |  max time  |%varavg| %total
---------------------------------------------------------------
Pair    | 1.7574e-05 | 0.016275   | 0.057831   |  16.6 |  8.31
Bond    | 2.8669e-05 | 9.2611e-05 | 0.00020069 |   0.0 |  0.05
Kspace  | 0.13149    | 0.17303    | 0.1897     |   5.1 | 88.38
Neigh   | 0          | 0          | 0          |   0.0 |  0.00
Comm    | 0.0024543  | 0.0039189  | 0.0053141  |   1.7 |  2.00
Output  | 0          | 0          | 0          |   0.0 |  0.00
Modify  | 1.868e-05  | 2.9562e-05 | 4.1074e-05 |   0.0 |  0.02
Other   |            | 0.002443   |            |       |  1.25

Nlocal:        66.6000 ave         216 max           0 min
Histogram: 8 0 8 0 0 0 0 0 0 4
Nghost:        2081.30 ave        3155 max         861 min
Histogram: 8 0 0 0 0 0 0 0 8 4
Neighs:        27314.2 ave      101354 max           0 min
Histogram: 9 3 4 0 0 0 0 0 0 4
FullNghs:      54644.4 ave      197745 max           0 min
Histogram: 8 7 1 0 0 0 0 0 0 4

Total # of neighbors = 1092888
Ave neighs/atom = 820.48649
Ave special neighs/atom = 0.43243243
Neighbor list builds = 0
Dangerous builds = 0
  min_modify integrator eulerexplicit tmax 10.0 tmin 0.0 delaystep 5           dtgrow 1.1 dtshrink 0.5 alpha0 0.1 alphashrink 0.99           vdfmax 100000 halfstepback no initialdelay no
  unfix freeze

  # Minimize bottom formate
  fix freeze immo_bottom_fa setforce 0.0 0.0 0.0
  minimize 1.0e-6 1.0e-9 1000 10000
PPPM initialization ...
  using 12-bit tables for long-range coulomb (../kspace.cpp:340)
  G vector (1/distance) = 0.28992484
  grid = 40 40 160
  stencil order = 5
  estimated absolute RMS force accuracy = 0.0003575219
  estimated relative force accuracy = 1.0766666e-06
  using double precision KISS FFT
  3d grid and FFT values/proc = 100920 46800
Per MPI rank memory allocation (min/avg/max) = 12.80 | 14.60 | 19.22 Mbytes
Step Temp PotEng 
  183951            0   -208835.16 
  183975            0    -208878.9 
Loop time of 0.445917 on 20 procs for 24 steps with 1332 atoms

99.3% CPU use with 20 MPI tasks x no OpenMP threads

Minimization stats:
  Stopping criterion = energy tolerance
  Energy initial, next-to-last, final = 
     -208835.161721021  -208878.729581809  -208878.901484909
  Force two-norm initial, final = 107.23788 17.737469
  Force max component initial, final = 42.855352 3.7869724
  Final line search alpha, max atom move = 0.0053025533 0.020080623
  Iterations, force evaluations = 24 47

MPI task timing breakdown:
Section |  min time  |  avg time  |  max time  |%varavg| %total
---------------------------------------------------------------
Pair    | 3.446e-05  | 0.037138   | 0.13248    |  25.1 |  8.33
Bond    | 5.9183e-05 | 0.00021132 | 0.00047332 |   0.0 |  0.05
Kspace  | 0.29945    | 0.39476    | 0.43276    |   7.7 | 88.53
Neigh   | 0          | 0          | 0          |   0.0 |  0.00
Comm    | 0.0055742  | 0.0088454  | 0.01196    |   2.5 |  1.98
Output  | 0          | 0          | 0          |   0.0 |  0.00
Modify  | 4.3055e-05 | 6.7267e-05 | 9.6955e-05 |   0.0 |  0.02
Other   |            | 0.004892   |            |       |  1.10

Nlocal:        66.6000 ave         216 max           0 min
Histogram: 8 0 8 0 0 0 0 0 0 4
Nghost:        2081.30 ave        3155 max         861 min
Histogram: 8 0 0 0 0 0 0 0 8 4
Neighs:        27312.5 ave      101339 max           0 min
Histogram: 9 3 4 0 0 0 0 0 0 4
FullNghs:      54644.4 ave      197745 max           0 min
Histogram: 8 7 1 0 0 0 0 0 0 4

Total # of neighbors = 1092888
Ave neighs/atom = 820.48649
Ave special neighs/atom = 0.43243243
Neighbor list builds = 0
Dangerous builds = 0
  min_modify integrator eulerexplicit tmax 10.0 tmin 0.0 delaystep 5           dtgrow 1.1 dtshrink 0.5 alpha0 0.1 alphashrink 0.99           vdfmax 100000 halfstepback no initialdelay no
  unfix freeze

  # Minimize bottom ho
  fix freeze immo_bottom_ho setforce 0.0 0.0 0.0
  minimize 1.0e-6 1.0e-9 1000 10000
PPPM initialization ...
  using 12-bit tables for long-range coulomb (../kspace.cpp:340)
  G vector (1/distance) = 0.28992484
  grid = 40 40 160
  stencil order = 5
  estimated absolute RMS force accuracy = 0.0003575219
  estimated relative force accuracy = 1.0766666e-06
  using double precision KISS FFT
  3d grid and FFT values/proc = 100920 46800
Per MPI rank memory allocation (min/avg/max) = 12.80 | 14.60 | 19.22 Mbytes
Step Temp PotEng 
  183975            0    -208878.9 
  183985            0   -208941.03 
Loop time of 0.195126 on 20 procs for 10 steps with 1332 atoms

99.3% CPU use with 20 MPI tasks x no OpenMP threads

Minimization stats:
  Stopping criterion = energy tolerance
  Energy initial, next-to-last, final = 
     -208878.901484909  -208940.900662937  -208941.034903673
  Force two-norm initial, final = 264.28104 10.690406
  Force max component initial, final = 67.799989 2.1941973
  Final line search alpha, max atom move = 0.047433122 0.10407763
  Iterations, force evaluations = 10 20

MPI task timing breakdown:
Section |  min time  |  avg time  |  max time  |%varavg| %total
---------------------------------------------------------------
Pair    | 1.6319e-05 | 0.016212   | 0.057652   |  16.6 |  8.31
Bond    | 2.708e-05  | 9.1339e-05 | 0.00021448 |   0.0 |  0.05
Kspace  | 0.13095    | 0.1724     | 0.18898    |   5.1 | 88.35
Neigh   | 0          | 0          | 0          |   0.0 |  0.00
Comm    | 0.0024104  | 0.0038922  | 0.0053064  |   1.7 |  1.99
Output  | 0          | 0          | 0          |   0.0 |  0.00
Modify  | 2.1025e-05 | 3.0277e-05 | 4.2528e-05 |   0.0 |  0.02
Other   |            | 0.002503   |            |       |  1.28

Nlocal:        66.6000 ave         216 max           0 min
Histogram: 8 0 8 0 0 0 0 0 0 4
Nghost:        2081.75 ave        3155 max         861 min
Histogram: 8 0 0 0 0 0 0 0 8 4
Neighs:        27315.5 ave      101393 max           0 min
Histogram: 9 3 4 0 0 0 0 0 0 4
FullNghs:      54644.4 ave      197745 max           0 min
Histogram: 8 7 1 0 0 0 0 0 0 4

Total # of neighbors = 1092888
Ave neighs/atom = 820.48649
Ave special neighs/atom = 0.43243243
Neighbor list builds = 0
Dangerous builds = 0
  min_modify integrator eulerexplicit tmax 10.0 tmin 0.0 delaystep 5           dtgrow 1.1 dtshrink 0.5 alpha0 0.1 alphashrink 0.99           vdfmax 100000 halfstepback no initialdelay no
  unfix freeze

  # Electrostatic relaxation
  fix  swp feo atom/swap 1 1 ${rand} ${temp} ke no types 6 7
  fix  swp feo atom/swap 1 1 5979850 ${temp} ke no types 6 7
  fix  swp feo atom/swap 1 1 5979850 364500 ke no types 6 7
  thermo 1000
  thermo_style custom step v_ftemp v_cnum pe f_swp[1] f_swp[2] v_rfet3 v_rfeo3
  run ${nsteps}
  run 26244
PPPM initialization ...
  using 12-bit tables for long-range coulomb (../kspace.cpp:340)
  G vector (1/distance) = 0.28992484
  grid = 40 40 160
  stencil order = 5
  estimated absolute RMS force accuracy = 0.0003575219
  estimated relative force accuracy = 1.0766666e-06
  using double precision KISS FFT
  3d grid and FFT values/proc = 100920 46800
Per MPI rank memory allocation (min/avg/max) = 11.68 | 13.48 | 18.09 Mbytes
Step v_ftemp v_cnum PotEng f_swp[1] f_swp[2] v_rfet3 v_rfeo3 
  183985       364500          106   -208941.03            0            0            1   0.66666667 
  184000       364500          106   -208872.08           15            7            1   0.66666667 
  185000       364500          106   -209116.67         1015          780            1   0.66666667 
  186000       364500          106   -208636.72         2015         1536            1   0.66666667 
  187000       364500          106   -208341.96         3015         2270            1   0.66666667 
  188000       364500          106   -208855.09         4015         3016            1   0.66666667 
  189000       364500          106   -207986.51         5015         3757            1   0.66666667 
  190000       364500          106   -208197.31         6015         4519            1   0.66666667 
  191000       364500          106   -208785.66         7015         5261            1   0.66666667 
  192000       364500          106   -209318.39         8015         6024            1   0.66666667 
  193000       364500          106   -208568.48         9015         6799            1   0.66666667 
  194000       364500          106   -208275.57        10015         7549            1   0.66666667 
[...]
 2930000            2            2   -210646.64        14403            0            1   0.66666667 
 2931000            2            2   -210646.64        15403            0            1   0.66666667 
 2932000            2            2   -210646.64        16403            0            1   0.66666667 
 2933000            2            2   -210646.64        17403            0            1   0.66666667 
 2934000            2            2   -210646.64        18403            0            1   0.66666667 
 2935000            2            2   -210646.64        19403            0            1   0.66666667 
 2936000            2            2   -210646.64        20403            0            1   0.66666667 
 2937000            2            2   -210646.64        21403            0            1   0.66666667 
 2938000            2            2   -210646.64        22403            0            1   0.66666667 
 2939000            2            2   -210646.64        23403            0            1   0.66666667 
 2940000            2            2   -210646.64        24403            0            1   0.66666667 
 2941000            2            2   -210646.64        25403            0            1   0.66666667 
 2941841            2            2   -210646.64        26244            0            1   0.66666667 
Loop time of 1067.38 on 20 procs for 26244 steps with 1332 atoms

Performance: 1.062 ns/day, 22.595 hours/ns, 24.587 timesteps/s
99.4% CPU use with 20 MPI tasks x no OpenMP threads

MPI task timing breakdown:
Section |  min time  |  avg time  |  max time  |%varavg| %total
---------------------------------------------------------------
Pair    | 0.014324   | 13.265     | 47.409     | 477.5 |  1.24
Bond    | 0.01765    | 0.077452   | 0.16925    |  23.5 |  0.01
Kspace  | 166.11     | 200.32     | 213.78     | 123.4 | 18.77
Neigh   | 54.981     | 55.165     | 55.495     |   2.0 |  5.17
Comm    | 10.137     | 11.912     | 13.663     |  38.2 |  1.12
Output  | 0.0033905  | 0.0051692  | 0.0073559  |   1.8 |  0.00
Modify  | 784.62     | 786.33     | 787.82     |   4.6 | 73.67
Other   |            | 0.3068     |            |       |  0.03

Nlocal:        66.6000 ave         216 max           0 min
Histogram: 8 0 8 0 0 0 0 0 0 4
Nghost:        2081.30 ave        3153 max         861 min
Histogram: 8 0 0 0 0 0 0 0 8 4
Neighs:        27324.3 ave      101263 max           0 min
Histogram: 8 4 4 0 0 0 0 0 0 4
FullNghs:      54644.4 ave      197745 max           0 min
Histogram: 8 7 1 0 0 0 0 0 0 4

Total # of neighbors = 1092888
Ave neighs/atom = 820.48649
Ave special neighs/atom = 0.43243243
Neighbor list builds = 52488
Dangerous builds = 0

  variable cnum equal (${cnum}-1)
  variable cnum equal (2-1)

  unfix swp
  thermo_style custom step temp pe
  write_data  001-dbt_3x3_${layer}L_fa_${type}_${cnum}_${temp}K.data
  write_data  001-dbt_3x3_17L_fa_${type}_${cnum}_${temp}K.data
  write_data  001-dbt_3x3_17L_fa_tet_full_${cnum}_${temp}K.data
  write_data  001-dbt_3x3_17L_fa_tet_full_1_${temp}K.data
  write_data  001-dbt_3x3_17L_fa_tet_full_1_2K.data
System init for write_data ...
PPPM initialization ...
  using 12-bit tables for long-range coulomb (../kspace.cpp:340)
  G vector (1/distance) = 0.28992484
  grid = 40 40 160
  stencil order = 5
  estimated absolute RMS force accuracy = 0.0003575219
  estimated relative force accuracy = 1.0766666e-06
  using double precision KISS FFT
  3d grid and FFT values/proc = 100920 46800

next temp
jump SELF minimize_temp

  variable ftemp equal v_temp

  # Minimize top formate
  fix freeze immo_top_fa setforce 0.0 0.0 0.0
  minimize 1.0e-6 1.0e-9 1000 10000
PPPM initialization ...
  using 12-bit tables for long-range coulomb (../kspace.cpp:340)
  G vector (1/distance) = 0.28992484
  grid = 40 40 160
  stencil order = 5
  estimated absolute RMS force accuracy = 0.0003575219
  estimated relative force accuracy = 1.0766666e-06
  using double precision KISS FFT
  3d grid and FFT values/proc = 100920 46800
Per MPI rank memory allocation (min/avg/max) = 12.80 | 14.60 | 19.22 Mbytes
Step Temp PotEng 
 2941841            0   -210646.64 
 2941842            0   -210646.64 
Loop time of 0.0285998 on 20 procs for 1 steps with 1332 atoms

99.9% CPU use with 20 MPI tasks x no OpenMP threads

Minimization stats:
  Stopping criterion = energy tolerance
  Energy initial, next-to-last, final = 
     -210646.643382268  -210646.643382268   -210646.64437654
  Force two-norm initial, final = 1.3214099 2.4307959
  Force max component initial, final = 0.24965116 0.77493337
  Final line search alpha, max atom move = 0.40055892 0.31040647
  Iterations, force evaluations = 1 2

MPI task timing breakdown:
Section |  min time  |  avg time  |  max time  |%varavg| %total
---------------------------------------------------------------
Pair    | 5.995e-06  | 0.0022864  | 0.0081225  |   6.2 |  7.99
Bond    | 4.115e-06  | 1.2425e-05 | 2.5468e-05 |   0.0 |  0.04
Kspace  | 0.019174   | 0.02502    | 0.027356   |   1.9 | 87.48
Neigh   | 0          | 0          | 0          |   0.0 |  0.00
Comm    | 0.00035945 | 0.0005648  | 0.00075689 |   0.0 |  1.97
Output  | 0          | 0          | 0          |   0.0 |  0.00
Modify  | 1.97e-06   | 4.6649e-06 | 6.557e-06  |   0.0 |  0.02
Other   |            | 0.0007111  |            |       |  2.49

Nlocal:        66.6000 ave         216 max           0 min
Histogram: 8 0 8 0 0 0 0 0 0 4
Nghost:        2081.30 ave        3153 max         861 min
Histogram: 8 0 0 0 0 0 0 0 8 4
Neighs:        27324.3 ave      101263 max           0 min
Histogram: 8 4 4 0 0 0 0 0 0 4
FullNghs:      54644.4 ave      197745 max           0 min
Histogram: 8 7 1 0 0 0 0 0 0 4

Total # of neighbors = 1092888
Ave neighs/atom = 820.48649
Ave special neighs/atom = 0.43243243
Neighbor list builds = 0
Dangerous builds = 0
  min_modify integrator eulerexplicit tmax 10.0 tmin 0.0 delaystep 5           dtgrow 1.1 dtshrink 0.5 alpha0 0.1 alphashrink 0.99           vdfmax 100000 halfstepback no initialdelay no
  unfix freeze

  # Minimize top ho
  fix freeze immo_top_ho setforce 0.0 0.0 0.0
  minimize 1.0e-6 1.0e-9 1000 10000
PPPM initialization ...
  using 12-bit tables for long-range coulomb (../kspace.cpp:340)
  G vector (1/distance) = 0.28992484
  grid = 40 40 160
  stencil order = 5
  estimated absolute RMS force accuracy = 0.0003575219
  estimated relative force accuracy = 1.0766666e-06
  using double precision KISS FFT
  3d grid and FFT values/proc = 100920 46800
Per MPI rank memory allocation (min/avg/max) = 12.80 | 14.60 | 19.22 Mbytes
Step Temp PotEng 
 2941842            0   -210646.64 
 2941843            0   -210646.64 
Loop time of 0.0286091 on 20 procs for 1 steps with 1332 atoms

98.7% CPU use with 20 MPI tasks x no OpenMP threads

Minimization stats:
  Stopping criterion = energy tolerance
  Energy initial, next-to-last, final = 
      -210646.64437654   -210646.64437654  -210646.644452917
  Force two-norm initial, final = 0.57948602 0.42270236
  Force max component initial, final = 0.21821837 0.14485184
  Final line search alpha, max atom move = 0.45825656 0.066379306
  Iterations, force evaluations = 1 2

MPI task timing breakdown:
Section |  min time  |  avg time  |  max time  |%varavg| %total
---------------------------------------------------------------
Pair    | 6.722e-06  | 0.0023198  | 0.0081902  |   6.3 |  8.11
Bond    | 4.098e-06  | 1.3897e-05 | 3.2937e-05 |   0.0 |  0.05
Kspace  | 0.019071   | 0.024942   | 0.027311   |   1.9 | 87.18
Neigh   | 0          | 0          | 0          |   0.0 |  0.00
Comm    | 0.00034134 | 0.00057145 | 0.00078614 |   0.0 |  2.00
Output  | 0          | 0          | 0          |   0.0 |  0.00
Modify  | 3.415e-06  | 5.1821e-06 | 6.982e-06  |   0.0 |  0.02
Other   |            | 0.0007572  |            |       |  2.65

Nlocal:        66.6000 ave         216 max           0 min
Histogram: 8 0 8 0 0 0 0 0 0 4
Nghost:        2081.30 ave        3153 max         861 min
Histogram: 8 0 0 0 0 0 0 0 8 4
Neighs:        27324.3 ave      101263 max           0 min
Histogram: 8 4 4 0 0 0 0 0 0 4
FullNghs:      54644.4 ave      197745 max           0 min
Histogram: 8 7 1 0 0 0 0 0 0 4

Total # of neighbors = 1092888
Ave neighs/atom = 820.48649
Ave special neighs/atom = 0.43243243
Neighbor list builds = 0
Dangerous builds = 0
  min_modify integrator eulerexplicit tmax 10.0 tmin 0.0 delaystep 5           dtgrow 1.1 dtshrink 0.5 alpha0 0.1 alphashrink 0.99           vdfmax 100000 halfstepback no initialdelay no
  unfix freeze

  # Minimize bottom formate
  fix freeze immo_bottom_fa setforce 0.0 0.0 0.0
  minimize 1.0e-6 1.0e-9 1000 10000
PPPM initialization ...
  using 12-bit tables for long-range coulomb (../kspace.cpp:340)
  G vector (1/distance) = 0.28992484
  grid = 40 40 160
  stencil order = 5
  estimated absolute RMS force accuracy = 0.0003575219
  estimated relative force accuracy = 1.0766666e-06
  using double precision KISS FFT
  3d grid and FFT values/proc = 100920 46800
Per MPI rank memory allocation (min/avg/max) = 12.80 | 14.60 | 19.22 Mbytes
Step Temp PotEng 
 2941843            0   -210646.64 
 2941844            0   -210646.64 
Loop time of 0.0286152 on 20 procs for 1 steps with 1332 atoms

99.2% CPU use with 20 MPI tasks x no OpenMP threads

Minimization stats:
  Stopping criterion = energy tolerance
  Energy initial, next-to-last, final = 
     -210646.644452917  -210646.644452917  -210646.644970778
  Force two-norm initial, final = 1.0103508 1.7464353
  Force max component initial, final = 0.28942650 0.40075718
  Final line search alpha, max atom move = 0.34551086 0.13846596
  Iterations, force evaluations = 1 2

MPI task timing breakdown:
Section |  min time  |  avg time  |  max time  |%varavg| %total
---------------------------------------------------------------
Pair    | 6.117e-06  | 0.0023198  | 0.0082972  |   6.3 |  8.11
Bond    | 3.883e-06  | 1.3146e-05 | 2.7478e-05 |   0.0 |  0.05
Kspace  | 0.018974   | 0.024951   | 0.027322   |   1.9 | 87.19
Neigh   | 0          | 0          | 0          |   0.0 |  0.00
Comm    | 0.00037823 | 0.00059481 | 0.00080006 |   0.0 |  2.08
Output  | 0          | 0          | 0          |   0.0 |  0.00
Modify  | 2.999e-06  | 5.0422e-06 | 9.788e-06  |   0.0 |  0.02
Other   |            | 0.0007317  |            |       |  2.56

Nlocal:        66.6000 ave         216 max           0 min
Histogram: 8 0 8 0 0 0 0 0 0 4
Nghost:        2081.30 ave        3153 max         861 min
Histogram: 8 0 0 0 0 0 0 0 8 4
Neighs:        27324.3 ave      101263 max           0 min
Histogram: 8 4 4 0 0 0 0 0 0 4
FullNghs:      54644.4 ave      197745 max           0 min
Histogram: 8 7 1 0 0 0 0 0 0 4

Total # of neighbors = 1092888
Ave neighs/atom = 820.48649
Ave special neighs/atom = 0.43243243
Neighbor list builds = 0
Dangerous builds = 0
  min_modify integrator eulerexplicit tmax 10.0 tmin 0.0 delaystep 5           dtgrow 1.1 dtshrink 0.5 alpha0 0.1 alphashrink 0.99           vdfmax 100000 halfstepback no initialdelay no
  unfix freeze

  # Minimize bottom ho
  fix freeze immo_bottom_ho setforce 0.0 0.0 0.0
  minimize 1.0e-6 1.0e-9 1000 10000
PPPM initialization ...
  using 12-bit tables for long-range coulomb (../kspace.cpp:340)
  G vector (1/distance) = 0.28992484
  grid = 40 40 160
  stencil order = 5
  estimated absolute RMS force accuracy = 0.0003575219
  estimated relative force accuracy = 1.0766666e-06
  using double precision KISS FFT
  3d grid and FFT values/proc = 100920 46800
Per MPI rank memory allocation (min/avg/max) = 12.80 | 14.60 | 19.22 Mbytes
Step Temp PotEng 
 2941844            0   -210646.64 
 2941845            0   -210646.64 
Loop time of 0.371929 on 20 procs for 1 steps with 1332 atoms

99.2% CPU use with 20 MPI tasks x no OpenMP threads

Minimization stats:
  Stopping criterion = linesearch alpha is zero
  Energy initial, next-to-last, final = 
     -210646.644970778  -210646.644970778  -210646.644970778
  Force two-norm initial, final = 0.078438079 0.078438079
  Force max component initial, final = 0.016503560 0.016503560
  Final line search alpha, max atom move = 1.9073486e-06 3.1478042e-08
  Iterations, force evaluations = 1 39

MPI task timing breakdown:
Section |  min time  |  avg time  |  max time  |%varavg| %total
---------------------------------------------------------------
Pair    | 3.1859e-05 | 0.030701   | 0.10923    |  23.0 |  8.25
Bond    | 5.4184e-05 | 0.00015983 | 0.00033696 |   0.0 |  0.04
Kspace  | 0.25127    | 0.32982    | 0.36116    |   7.0 | 88.68
Neigh   | 0          | 0          | 0          |   0.0 |  0.00
Comm    | 0.004633   | 0.0073514  | 0.0099577  |   2.3 |  1.98
Output  | 0          | 0          | 0          |   0.0 |  0.00
Modify  | 3.5842e-05 | 5.58e-05   | 8.7382e-05 |   0.0 |  0.02
Other   |            | 0.003838   |            |       |  1.03

Nlocal:        66.6000 ave         216 max           0 min
Histogram: 8 0 8 0 0 0 0 0 0 4
Nghost:        2081.30 ave        3153 max         861 min
Histogram: 8 0 0 0 0 0 0 0 8 4
Neighs:        27324.3 ave      101263 max           0 min
Histogram: 8 4 4 0 0 0 0 0 0 4
FullNghs:      54644.4 ave      197745 max           0 min
Histogram: 8 7 1 0 0 0 0 0 0 4

Total # of neighbors = 1092888
Ave neighs/atom = 820.48649
Ave special neighs/atom = 0.43243243
Neighbor list builds = 0
Dangerous builds = 0
  min_modify integrator eulerexplicit tmax 10.0 tmin 0.0 delaystep 5           dtgrow 1.1 dtshrink 0.5 alpha0 0.1 alphashrink 0.99           vdfmax 100000 halfstepback no initialdelay no
  unfix freeze

  # Electrostatic relaxation
  fix  swp feo atom/swap 1 1 ${rand} ${temp} ke no types 6 7
  fix  swp feo atom/swap 1 1 4097646 ${temp} ke no types 6 7
  fix  swp feo atom/swap 1 1 4097646 1 ke no types 6 7
  thermo 1000
  thermo_style custom step v_ftemp v_cnum pe f_swp[1] f_swp[2] v_rfet3 v_rfeo3
  run ${nsteps}
  run 26244
PPPM initialization ...
  using 12-bit tables for long-range coulomb (../kspace.cpp:340)
  G vector (1/distance) = 0.28992484
  grid = 40 40 160
  stencil order = 5
  estimated absolute RMS force accuracy = 0.0003575219
  estimated relative force accuracy = 1.0766666e-06
  using double precision KISS FFT
  3d grid and FFT values/proc = 100920 46800
Per MPI rank memory allocation (min/avg/max) = 11.68 | 13.48 | 18.09 Mbytes
Step v_ftemp v_cnum PotEng f_swp[1] f_swp[2] v_rfet3 v_rfeo3 
 2941845            1            1   -210646.64            0            0            1   0.66666667 
 2942000            1            1   -210646.64          155            0            1   0.66666667 
 2943000            1            1   -210646.64         1155            0            1   0.66666667 
 2944000            1            1   -210646.64         2155            0            1   0.66666667 
 2945000            1            1   -210646.64         3155            0            1   0.66666667 
 2946000            1            1   -210646.64         4155            0            1   0.66666667 
 2947000            1            1   -210646.64         5155            0            1   0.66666667 
 2948000            1            1   -210646.64         6155            0            1   0.66666667 
 2949000            1            1   -210646.64         7155            0            1   0.66666667 
 2950000            1            1   -210646.64         8155            0            1   0.66666667 
 2951000            1            1   -210646.64         9155            0            1   0.66666667 
 2952000            1            1   -210646.64        10155            0            1   0.66666667 
 2953000            1            1   -210646.64        11155            0            1   0.66666667 
 2954000            1            1   -210646.64        12155            0            1   0.66666667 
 2955000            1            1   -210646.64        13155            0            1   0.66666667 
 2956000            1            1   -210646.64        14155            0            1   0.66666667 
 2957000            1            1   -210646.64        15155            0            1   0.66666667 
 2958000            1            1   -210646.64        16155            0            1   0.66666667 
 2959000            1            1   -210646.64        17155            0            1   0.66666667 
 2960000            1            1   -210646.64        18155            0            1   0.66666667 
 2961000            1            1   -210646.64        19155            0            1   0.66666667 
 2962000            1            1   -210646.64        20155            0            1   0.66666667 
 2963000            1            1   -210646.64        21155            0            1   0.66666667 
 2964000            1            1   -210646.64        22155            0            1   0.66666667 
 2965000            1            1   -210646.64        23155            0            1   0.66666667 
 2966000            1            1   -210646.64        24155            0            1   0.66666667 
 2967000            1            1   -210646.64        25155            0            1   0.66666667 
 2968000            1            1   -210646.64        26155            0            1   0.66666667 
 2968089            1            1   -210646.64        26244            0            1   0.66666667 
Loop time of 1065.85 on 20 procs for 26244 steps with 1332 atoms

Performance: 1.064 ns/day, 22.563 hours/ns, 24.623 timesteps/s
99.4% CPU use with 20 MPI tasks x no OpenMP threads

MPI task timing breakdown:
Section |  min time  |  avg time  |  max time  |%varavg| %total
---------------------------------------------------------------
Pair    | 0.014499   | 13.268     | 47.502     | 477.7 |  1.24
Bond    | 0.017342   | 0.077734   | 0.16969    |  23.5 |  0.01
Kspace  | 165.35     | 199.66     | 213.13     | 123.7 | 18.73
Neigh   | 55.04      | 55.205     | 55.518     |   1.9 |  5.18
Comm    | 10.176     | 11.916     | 13.639     |  37.7 |  1.12
Output  | 0.0030872  | 0.0049855  | 0.0073207  |   2.0 |  0.00
Modify  | 783.71     | 785.41     | 786.89     |   4.5 | 73.69
Other   |            | 0.3098     |            |       |  0.03

Nlocal:        66.6000 ave         216 max           0 min
Histogram: 8 0 8 0 0 0 0 0 0 4
Nghost:        2081.30 ave        3153 max         861 min
Histogram: 8 0 0 0 0 0 0 0 8 4
Neighs:        27324.3 ave      101263 max           0 min
Histogram: 8 4 4 0 0 0 0 0 0 4
FullNghs:      54644.4 ave      197745 max           0 min
Histogram: 8 7 1 0 0 0 0 0 0 4

Total # of neighbors = 1092888
Ave neighs/atom = 820.48649
Ave special neighs/atom = 0.43243243
Neighbor list builds = 52488
Dangerous builds = 0

  variable cnum equal (${cnum}-1)
  variable cnum equal (1-1)

  unfix swp
  thermo_style custom step temp pe
  write_data  001-dbt_3x3_${layer}L_fa_${type}_${cnum}_${temp}K.data
  write_data  001-dbt_3x3_17L_fa_${type}_${cnum}_${temp}K.data
  write_data  001-dbt_3x3_17L_fa_tet_full_${cnum}_${temp}K.data
  write_data  001-dbt_3x3_17L_fa_tet_full_0_${temp}K.data
  write_data  001-dbt_3x3_17L_fa_tet_full_0_1K.data
System init for write_data ...
PPPM initialization ...
  using 12-bit tables for long-range coulomb (../kspace.cpp:340)
  G vector (1/distance) = 0.28992484
  grid = 40 40 160
  stencil order = 5
  estimated absolute RMS force accuracy = 0.0003575219
  estimated relative force accuracy = 1.0766666e-06
  using double precision KISS FFT
  3d grid and FFT values/proc = 100920 46800

next temp
jump SELF minimize_temp

write_data  001-dbt_3x3_${layer}L_fa_${type}_qeq.data
write_data  001-dbt_3x3_17L_fa_${type}_qeq.data
write_data  001-dbt_3x3_17L_fa_tet_full_qeq.data
System init for write_data ...
PPPM initialization ...
  using 12-bit tables for long-range coulomb (../kspace.cpp:340)
  G vector (1/distance) = 0.28992484
  grid = 40 40 160
  stencil order = 5
  estimated absolute RMS force accuracy = 0.0003575219
  estimated relative force accuracy = 1.0766666e-06
  using double precision KISS FFT
  3d grid and FFT values/proc = 100920 46800

Total wall time: 33:29:18
