ITEM: TIMESTEP
0
ITEM: NUMBER OF ATOMS
1818
ITEM: BOX BOUNDS pp pp ff
0.0000000000000000e+00 2.5440000000000001e+01
0.0000000000000000e+00 2.5440000000000001e+01
-6.4778423000000004e+01 3.2908000000000001e+01
ITEM: ATOMS id type c_coord
3 6 0
5 7 4
7 6 0
11 6 0
12 7 0
17 6 0
18 7 0
20 7 4
23 7 0
25 7 4
27 7 0
31 6 0
32 7 0
37 7 0
38 6 0
40 7 4
43 6 0
45 7 4
47 6 0
51 7 0
52 6 0
57 6 0
58 7 0
60 7 4
62 7 0
63 6 0
68 6 0
69 7 0
71 7 4
74 6 0
76 7 4
78 6 0
82 6 0
83 7 0
88 7 0
89 6 0
91 7 4
94 7 0
96 7 4
98 7 0
102 7 0
103 6 0
108 6 0
109 7 0
111 7 4
114 6 0
116 7 4
118 6 0
123 7 0
125 7 4
127 6 0
131 7 0
132 7 0
137 6 0
138 6 0
140 7 4
143 7 0
145 7 4
147 7 0
151 6 0
152 7 0
157 6 0
158 7 0
160 7 4
163 7 0
165 7 4
167 7 0
171 6 0
172 7 0
177 7 0
178 6 0
180 7 4
182 6 0
183 7 0
188 6 0
189 7 0
191 7 4
194 6 0
196 7 4
198 7 0
202 6 0
203 6 0
208 7 0
209 7 0
211 7 4
214 7 0
216 7 4
218 6 0
222 6 0
223 7 0
228 6 0
229 7 0
231 7 4
234 6 0
236 7 4
238 7 0
243 7 0
245 7 4
247 7 0
251 6 0
252 6 0
257 7 0
258 7 0
260 7 4
263 7 0
265 7 4
267 6 0
271 6 0
272 7 0
277 6 0
278 7 0
280 7 4
283 6 0
285 7 4
287 6 0
291 7 0
292 7 0
297 6 0
298 6 0
300 7 4
302 7 0
303 6 0
308 6 0
309 7 0
311 7 4
314 7 0
316 7 4
318 6 0
322 6 0
323 7 0
328 7 0
329 6 0
331 7 4
334 7 0
336 7 4
338 7 0
342 6 0
343 7 0
348 6 0
349 7 0
351 7 4
354 6 0
356 7 4
358 6 0
361 7 0
362 6 0
367 7 0
368 6 0
369 7 4
372 7 4
375 6 0
376 7 0
381 7 0
382 6 0
383 7 4
386 7 4
389 6 0
390 6 0
395 7 0
396 7 0
397 7 4
400 7 4
405 7 4
408 7 0
409 7 0
414 6 0
415 6 0
416 7 4
419 7 4
422 6 0
423 7 0
428 6 0
429 7 0
430 7 4
433 7 4
436 7 0
437 6 0
442 7 0
443 6 0
444 7 4
445 7 0
446 6 0
451 6 0
452 7 0
453 7 4
456 7 4
459 7 0
460 6 0
465 7 0
466 6 0
467 7 4
470 7 4
473 7 0
474 6 0
479 6 0
480 7 0
481 7 4
484 7 4
489 7 4
492 6 0
493 6 0
498 7 0
499 7 0
500 7 4
503 7 4
506 6 0
507 7 0
512 7 0
513 6 0
514 7 4
517 7 4
520 6 0
521 6 0
526 7 0
527 7 0
528 7 4
529 6 0
530 6 0
535 7 0
536 7 0
537 7 4
540 7 4
543 6 0
544 7 0
549 7 0
550 6 0
551 7 4
554 7 4
557 7 0
558 6 0
563 7 0
564 6 0
565 7 4
568 7 4
573 7 4
576 7 0
577 6 0
582 6 0
583 7 0
584 7 4
587 7 4
590 6 0
591 7 0
596 7 0
597 6 0
598 7 4
601 7 4
604 7 0
605 6 0
610 6 0
611 7 0
612 7 4
615 7 4
618 7 0
619 7 0
624 6 0
625 6 0
626 7 4
629 7 4
632 6 0
633 7 0
638 6 0
639 7 0
640 7 4
643 7 4
646 6 0
647 7 0
652 6 0
653 7 0
654 7 4
655 6 0
656 7 0
661 6 0
662 7 0
663 7 4
666 7 4
669 7 0
670 7 0
675 6 0
676 6 0
677 7 4
680 7 4
683 7 0
684 6 0
689 6 0
690 7 0
691 7 4
694 7 4
699 7 4
702 6 0
703 7 0
708 6 0
709 7 0
710 7 4
713 7 4
716 6 0
717 7 0
722 7 0
723 6 0
724 7 4
727 7 4
730 7 0
731 6 0
736 7 0
737 6 0
738 7 4
739 7 0
740 6 0
745 6 0
746 7 0
747 7 4
750 7 4
753 6 0
754 7 0
759 7 0
760 6 0
761 7 4
764 7 4
767 7 0
768 6 0
773 7 0
774 6 0
775 7 4
778 7 4
783 7 4
786 6 0
787 7 0
792 7 0
793 6 0
794 7 4
797 7 4
800 6 0
801 7 0
806 7 0
807 6 0
808 7 4
811 7 4
814 7 0
815 6 0
820 6 0
821 7 0
822 7 4
823 7 0
824 7 0
829 6 0
830 6 0
831 7 4
834 7 4
837 7 0
838 7 0
843 6 0
844 6 0
845 7 4
848 7 4
851 7 0
852 6 0
857 6 0
858 7 0
859 7 4
862 7 4
865 7 0
866 7 0
871 6 0
872 6 0
873 7 4
876 7 4
879 7 4
880 6 0
881 7 0
886 7 0
887 6 0
888 7 4
891 7 4
894 7 4
895 7 0
896 6 0
901 6 0
902 7 0
903 7 4
906 7 4
909 7 4
912 7 4
915 7 4
916 7 0
917 7 0
922 6 0
923 6 0
924 7 4
927 7 4
930 7 4
931 7 0
932 7 0
937 6 0
938 6 0
939 7 4
942 7 4
945 7 4
946 6 0
947 7 0
952 7 0
953 6 0
954 7 4
955 6 0
956 7 0
961 6 0
962 7 0
963 7 4
966 7 4
969 7 4
970 7 0
971 6 0
976 7 0
977 6 0
978 7 4
981 7 4
984 7 4
985 7 0
986 6 0
991 7 0
992 6 0
993 7 4
996 7 4
999 7 4
1002 7 4
1005 7 4
1006 6 0
1007 7 0
1012 7 0
1013 6 0
1014 7 4
1017 7 4
1020 7 4
1021 6 0
1022 6 0
1027 7 0
1028 7 0
1029 7 4
1032 7 4
1035 7 4
1036 7 0
1037 6 0
1042 6 0
1043 7 0
1044 7 4
1045 7 0
1046 6 0
1051 7 0
1052 6 0
1053 7 4
1056 7 4
1059 7 4
1060 6 0
1061 7 0
1066 7 0
1067 6 0
1068 7 4
1071 7 4
1074 7 4
1075 6 0
1076 7 0
1081 6 0
1082 7 0
1083 7 4
1086 7 4
1089 7 4
1092 7 4
1095 7 4
1096 7 0
1097 6 0
1102 6 0
1103 7 0
1104 7 4
1107 7 4
1110 7 4
1111 7 0
1112 6 0
1117 6 0
1118 7 0
1119 7 4
1122 7 4
1125 7 4
1126 7 0
1127 7 0
1132 6 0
1133 6 0
1134 7 4
1137 7 4
1140 7 4
1141 7 0
1142 7 0
1147 7 0
1148 7 0
1151 7 4
1154 7 4
1155 7 0
1156 7 0
1161 7 0
1162 7 0
1165 7 4
1168 7 4
1169 6 0
1170 7 0
1175 7 0
1176 6 0
1177 6 0
1178 7 0
1183 7 0
1184 6 0
1187 7 4
1190 7 4
1191 6 0
1192 7 0
1197 7 0
1198 6 0
1201 7 4
1204 7 4
1205 7 0
1206 7 0
1211 7 0
1212 6 0
1215 7 4
1218 7 4
1221 7 4
1224 7 4
1225 7 0
1226 7 0
1231 7 0
1232 6 0
1235 7 4
1238 7 4
1239 6 0
1240 7 0
1245 7 0
1246 7 0
1249 7 4
1252 7 4
1253 6 0
1254 7 0
1259 7 0
1260 7 0
1261 6 0
1262 7 0
1267 7 0
1268 6 0
1271 7 4
1274 7 4
1275 7 0
1276 7 0
1281 7 0
1282 6 0
1285 7 4
1288 7 4
1289 6 0
1290 7 0
1295 7 0
1296 7 0
1299 7 4
1302 7 4
1305 7 4
1308 7 4
1309 6 0
1310 7 0
1315 7 0
1316 6 0
1319 7 4
1322 7 4
1323 7 0
1324 7 0
1329 7 0
1330 6 0
1333 7 4
1336 7 4
1337 7 0
1338 7 0
1343 7 0
1344 7 0
1345 7 0
1346 7 0
1351 7 0
1352 7 0
1355 7 4
1358 7 4
1359 7 0
1360 7 0
1365 7 0
1366 6 0
1369 7 4
1372 7 4
1373 7 0
1374 7 0
1379 7 0
1380 7 0
1383 7 4
1386 7 4
1388 7 0
1389 6 0
1394 6 0
1395 7 0
1399 6 0
1400 7 4
1401 7 0
1404 7 4
1406 7 0
1407 6 0
1412 6 0
1413 7 0
1417 6 0
1418 7 4
1419 6 0
1422 7 4
1424 7 0
1425 6 0
1430 6 0
1431 7 0
1435 7 0
1436 7 4
1437 7 0
1440 7 4
1443 7 0
1444 7 4
1445 7 0
1448 7 4
1450 7 0
1451 6 0
1456 6 0
1457 7 0
1461 6 0
1462 7 4
1463 6 0
1466 7 4
1468 7 0
1469 6 0
1474 6 0
1475 7 0
1479 7 0
1480 7 4
1481 7 0
1484 7 4
1486 7 0
1487 6 0
1492 6 0
1493 7 0
1496 7 0
1497 6 0
1502 6 0
1503 7 0
1507 7 0
1508 7 4
1509 6 0
1512 7 4
1514 7 0
1515 6 0
1520 7 0
1521 7 0
1525 6 0
1526 7 4
1527 7 0
1530 7 4
1532 7 0
1533 6 0
1538 6 0
1539 7 0
1543 6 0
1544 7 4
1545 6 0
1548 7 4
1551 6 0
1552 7 4
1553 7 0
1556 7 4
1558 7 0
1559 6 0
1564 6 0
1565 7 0
1569 6 0
1570 7 4
1571 7 0
1574 7 4
1576 7 0
1577 6 0
1582 6 0
1583 7 0
1587 6 0
1588 7 4
1589 7 0
1592 7 4
1594 7 0
1595 6 0
1600 6 0
1601 7 0
1604 7 0
1605 6 0
1610 6 0
1611 7 0
1615 6 0
1616 7 4
1617 7 0
1620 7 4
1622 7 0
1623 6 0
1628 6 0
1629 7 0
1633 6 0
1634 7 4
1635 7 0
1638 7 4
1640 7 0
1641 6 0
1646 6 0
1647 7 0
1651 7 0
1652 7 4
1653 6 0
1656 7 4
1659 7 0
1660 7 4
1661 7 0
1664 7 4
1666 7 0
1667 6 0
1672 6 0
1673 7 0
1677 6 0
1678 7 4
1679 6 0
1682 7 4
1684 7 0
1685 7 0
1690 6 0
1691 6 0
1695 6 0
1696 7 4
1697 7 0
1700 7 4
1702 6 0
1703 6 0
1708 6 0
1709 7 0
1712 7 0
1714 7 4
1716 6 0
1718 7 4
1720 7 0
1725 6 0
1728 6 0
1730 7 4
1732 6 0
1734 7 4
1736 7 0
1741 7 0
1744 6 0
1746 7 4
1748 7 0
1750 7 4
1752 6 0
1757 6 0
1760 6 0
1765 6 0
1768 7 0
1770 7 4
1772 6 0
1774 7 4
1776 7 0
1781 7 0
1784 6 0
1786 7 4
1788 7 0
1790 7 4
1792 6 0
1797 6 0
1800 7 0
1802 7 4
1804 6 0
1806 7 4
1808 7 0
1810 7 4
1812 7 0
1814 7 4
1816 7 0
1821 6 0
1824 7 0
1826 7 4
1828 6 0
1830 7 4
1832 7 0
1837 6 0
1840 7 0
1842 7 4
1844 7 0
1846 7 4
1848 7 0
1853 7 0
1856 7 0
1861 6 0
1864 6 0
1866 7 4
1868 7 0
1870 7 4
1872 6 0
1877 7 0
1880 6 0
1882 7 4
1884 6 0
1886 7 4
1888 7 0
1893 6 0
1896 6 0
1898 7 4
1900 7 0
1902 7 4
1904 6 0
1906 7 4
1908 7 0
1910 7 4
1912 6 0
1917 7 0
1920 6 0
1922 7 4
1924 6 0
1926 7 4
1928 7 0
1933 6 0
1936 7 0
1938 7 4
1940 6 0
1942 7 4
1944 7 0
1949 6 0
1952 6 0
1957 6 0
1960 7 0
1962 7 4
1964 7 0
1966 7 4
1968 7 0
1973 7 0
1976 6 0
1978 7 4
1980 6 0
1982 7 4
1984 7 0
1989 6 0
1992 7 0
1994 7 4
1996 7 0
1998 7 4
2000 6 0
2003 7 0
2006 7 0
2008 7 4
2010 6 0
2012 7 4
2014 7 0
2017 7 0
2020 6 0
2022 7 4
2024 7 0
2026 7 4
2028 6 0
2031 7 0
2034 6 0
2036 7 4
2038 7 0
2040 7 4
2042 6 0
2044 7 4
2046 7 0
2048 7 4
2050 7 0
2053 6 0
2056 7 0
2058 7 4
2060 6 0
2062 7 4
2064 7 0
2067 6 0
2070 7 0
2072 7 4
2074 7 0
2076 7 4
2078 6 0
2081 7 0
2084 6 0
2087 6 0
2090 6 0
2092 7 4
2094 7 0
2096 7 4
2098 6 0
2101 7 0
2104 6 0
2106 7 4
2108 6 0
2110 7 4
2112 6 0
2115 6 0
2118 7 0
2120 7 4
2122 6 0
2124 7 4
2126 7 0
2128 7 4
2130 7 0
2132 7 4
2134 6 0
2137 7 0
2140 6 0
2142 7 4
2144 6 0
2146 7 4
2148 7 0
2151 7 0
2154 7 0
2156 7 4
2158 6 0
2160 7 4
2162 6 0
2165 7 0
2168 6 0
2171 7 0
2174 6 0
2176 7 4
2178 6 0
2180 7 4
2182 7 0
2185 7 0
2188 6 0
2190 7 4
2192 6 0
2194 7 4
2196 6 0
2199 7 0
2202 7 0
2204 7 4
2206 7 0
2208 7 4
2210 7 0
2212 7 4
2214 6 0
2216 7 4
2218 6 0
2221 6 0
2224 7 0
2226 7 4
2228 6 0
2230 7 4
2232 7 0
2235 7 0
2238 7 0
2240 7 4
2242 7 0
2244 7 4
2246 6 0
2249 6 0
2252 7 0
2254 7 4
2256 6 0
2258 7 4
2260 7 0
2262 7 4
2264 6 0
2267 6 0
2269 7 4
2271 6 0
2273 7 4
2275 7 0
2277 7 4
2279 6 0
2282 7 0
2284 7 4
2286 7 0
2288 7 4
2290 7 0
2292 7 4
2294 6 0
2297 7 0
2299 7 4
2301 6 0
2304 7 0
2306 7 4
2308 6 0
2310 7 4
2312 7 0
2314 7 4
2316 6 0
2319 7 0
2321 7 4
2323 6 0
2325 7 4
2327 6 0
2329 7 4
2331 6 0
2334 6 0
2336 7 4
2338 6 0
2340 7 4
2342 6 0
2344 7 4
2346 7 0
2348 7 4
2350 7 0
2352 7 4
2354 6 0
2357 7 0
2359 7 4
2361 6 0
2363 7 4
2365 7 0
2367 7 4
2369 7 0
2372 7 0
2374 7 4
2376 6 0
2378 7 4
2380 6 0
2382 7 4
2384 7 0
2387 6 0
2389 7 4
2391 6 0
2394 6 0
2396 7 4
2398 6 0
2400 7 4
2402 7 0
2404 7 4
2406 7 0
2409 6 0
2411 7 4
2413 7 0
2415 7 4
2417 6 0
2419 7 4
2421 7 0
2424 7 0
2426 7 4
2428 7 0
2430 7 4
2432 7 0
2434 7 4
2436 6 0
2438 7 4
2440 7 0
2442 7 4
2444 7 0
2447 6 0
2449 7 4
2451 6 0
2453 7 4
2455 7 0
2457 7 4
2459 7 0
2462 6 0
2464 7 4
2466 7 0
2468 7 4
2470 6 0
2472 7 4
2474 6 0
2477 7 0
2479 7 4
2481 6 0
2484 7 0
2486 7 4
2488 7 0
2490 7 4
2492 7 0
2494 7 4
2496 6 0
2499 7 0
2501 7 4
2503 7 0
2505 7 4
2507 6 0
2509 7 4
2511 6 0
2514 7 0
2516 7 4
2518 6 0
2520 7 4
2522 7 0
2524 7 4
2526 6 0
2529 7 0
2532 7 0
2534 7 4
2536 7 0
2538 7 4
2540 7 0
2543 7 0
2546 7 0
2548 7 4
2550 6 0
2552 7 4
2554 6 0
2557 6 0
2560 6 0
2562 7 4
2564 6 0
2567 6 0
2569 7 4
2571 7 0
2573 7 4
2575 6 0
2578 6 0
2581 6 0
2583 7 4
2585 7 0
2587 7 4
2589 6 0
2592 7 0
2595 6 0
2597 7 4
2599 7 0
2601 7 4
2603 7 0
2606 7 0
2608 7 4
2610 6 0
2613 7 0
2616 6 0
2618 7 4
2620 6 0
2622 7 4
2624 7 0
2627 6 0
2630 7 0
2632 7 4
2634 6 0
2636 7 4
2638 7 0
2641 6 0
2644 7 0
2646 7 4
2648 6 0
2651 6 0
2653 7 4
2655 7 0
2657 7 4
2659 7 0
2662 7 0
2665 6 0
2667 7 4
2669 6 0
2671 7 4
2673 7 0
2676 6 0
2679 7 0
2681 7 4
2683 6 0
2685 7 4
2687 6 0
2690 6 0
2692 7 4
2694 7 0
2697 6 0
2700 6 0
2702 7 4
2704 7 0
2706 7 4
2708 7 0
2711 7 0
2714 6 0
2716 7 4
2718 7 0
2720 7 4
2722 6 0
2725 7 0
2728 7 0
2730 7 4
2732 7 0
2735 7 0
2737 7 4
2739 6 0
2741 7 4
2743 6 0
2746 7 0
2749 6 0
2751 7 4
2753 6 0
2755 7 4
2757 6 0
2760 7 0
2763 7 0
2765 7 4
2767 7 0
2769 7 4
2771 6 0
2774 7 0
2777 7 0
2779 7 4
2781 6 0
2783 7 4
2785 6 0
2788 7 0
2791 7 0
2793 7 4
2795 6 0
2797 7 4
2799 6 0
2802 7 0
2805 6 0
2807 7 4
2809 7 0
2811 7 4
2813 7 0
2816 7 0
2818 7 4
2820 7 0
2823 7 0
2826 7 0
2828 7 4
2830 7 0
2832 7 4
2834 7 0
2837 7 0
2840 7 0
2842 7 4
2844 6 0
2846 7 4
2848 7 0
2851 7 0
2854 6 0
2856 7 4
2858 7 0
2861 7 0
2863 7 4
2865 7 0
2867 7 4
2869 6 0
2872 7 0
2875 7 0
2877 7 4
2879 6 0
2881 7 4
2883 7 0
2886 7 0
2889 7 0
2891 7 4
2893 6 0
2895 7 4
2897 7 0
2900 7 0
2902 7 4
2904 7 0
2907 7 0
2910 7 0
2912 7 4
2914 6 0
2916 7 4
2918 7 0
2921 7 0
2924 7 0
2926 7 4
2928 6 0
2930 7 4
2932 7 0
2935 7 0
2938 7 0
2940 7 4
2942 7 0
2945 7 0
2947 7 4
2949 7 0
2951 7 4
2953 7 0
2956 7 0
2959 7 0
2961 7 4
2963 6 0
2965 7 4
2967 7 0
2970 7 0
2973 7 0
2975 7 4
2977 6 0
2979 7 4
2981 6 0
2984 6 0
2986 7 4
2988 6 0
2991 7 0
2994 7 0
2996 7 4
2998 6 0
3000 7 4
3002 7 0
3005 7 0
3008 7 0
3010 7 4
3012 6 0
3014 7 4
3016 6 0
3019 7 0
3022 7 0
3024 7 4
3027 6 0
3029 7 4
3031 6 0
3035 7 0
3036 6 0
3041 6 0
3042 7 0
3044 7 4
3047 6 0
3049 7 4
3051 6 0
3055 7 0
3056 6 0
3061 6 0
3062 7 0
3064 7 4
3067 6 0
3069 7 4
3071 7 0
3075 7 0
3076 6 0
3081 6 0
3082 7 0
3084 7 4
3086 7 0
3087 6 0
3092 6 0
3093 7 0
3095 7 4
3098 6 0
3100 7 4
3102 6 0
3106 7 0
3107 6 0
3112 6 0
3113 7 0
3115 7 4
3118 6 0
3120 7 4
3122 6 0
3126 7 0
3127 6 0
3132 6 0
3133 7 0
3135 7 4
3138 7 0
3140 7 4
3142 6 0
3147 6 0
3149 7 4
3151 6 0
3155 7 0
3156 6 0
3161 6 0
3162 7 0
3164 7 4
3167 6 0
3169 7 4
3171 6 0
3175 7 0
3176 6 0
3181 6 0
3182 7 0
3184 7 4
3187 6 0
3189 7 4
3191 6 0
3195 7 0
3196 6 0
3201 6 0
3202 7 0
3204 7 4
3206 7 0
3207 6 0
3212 6 0
3213 7 0
3215 7 4
3218 6 0
3220 7 4
3222 6 0
3226 7 0
3227 6 0
3232 6 0
3233 7 0
3235 7 4
3238 6 0
3240 7 4
3242 6 0
3246 7 0
3247 6 0
3252 6 0
3253 7 0
3255 7 4
3258 6 0
3260 7 4
3262 6 0
3267 6 0
3269 7 4
3271 6 0
3275 7 0
3276 6 0
3281 6 0
3282 7 0
3284 7 4
3287 6 0
3289 7 4
3291 6 0
3295 7 0
3296 6 0
3301 6 0
3302 7 0
3304 7 4
3307 6 0
3309 7 4
3311 6 0
3315 7 0
3316 6 0
3321 6 0
3322 7 0
3324 7 4
3326 7 0
3327 6 0
3332 6 0
3333 7 0
3335 7 4
3338 6 0
3340 7 4
3342 6 0
3346 7 0
3347 6 0
3352 6 0
3353 7 0
3355 7 4
3358 6 0
3360 7 4
3362 6 0
3366 7 0
3367 6 0
3372 6 0
3373 7 0
3375 7 4
3378 6 0
3380 7 4
3382 6 0
3385 7 0
3386 6 0
3391 6 0
3392 7 0
3393 7 4
3396 7 4
3399 7 0
3400 6 0
3405 6 0
3406 7 0
3407 7 4
3410 7 4
3413 7 0
3414 6 0
3419 6 0
3420 7 0
3421 7 4
3424 7 4
3429 7 4
3432 7 0
3433 6 0
3438 6 0
3439 7 0
3440 7 4
3443 7 4
3446 7 0
3447 6 0
3452 6 0
3453 7 0
3454 7 4
3457 7 4
3460 7 0
3461 6 0
3466 6 0
3467 7 0
3468 7 4
3469 7 0
3470 6 0
3475 6 0
3476 7 0
3477 7 4
3480 7 4
3483 7 0
3484 6 0
3489 6 0
3490 7 0
3491 7 4
3494 7 4
3497 7 0
3498 6 0
3503 6 0
3504 7 0
3505 7 4
3508 7 4
3513 7 4
3516 7 0
3517 6 0
3522 6 0
3523 7 0
3524 7 4
3527 7 4
3530 7 0
3531 6 0
3536 6 0
3537 7 0
3538 7 4
3541 7 4
3544 7 0
3545 6 0
3550 6 0
3551 7 0
3552 7 4
3553 7 0
3554 6 0
3559 6 0
3560 7 0
3561 7 4
3564 7 4
3567 7 0
3568 6 0
3573 6 0
3574 7 0
3575 7 4
3578 7 4
3581 7 0
3582 6 0
3587 6 0
3588 7 0
3589 7 4
3592 7 4
3597 7 4
3600 7 0
3601 6 0
3606 6 0
3607 7 0
3608 7 4
3611 7 4
3614 7 0
3615 6 0
3620 6 0
3621 7 0
3622 7 4
3625 7 4
3628 7 0
3629 6 0
3634 6 0
3635 7 0
3636 7 4
3639 7 4
3642 7 0
3643 6 0
3648 6 0
3649 7 0
3650 7 4
3653 7 4
3656 7 0
3657 6 0
3662 6 0
3663 7 0
3664 7 4
3667 7 4
3670 7 0
3671 6 0
3676 6 0
3677 7 0
3678 7 4
3679 7 0
3680 6 0
3685 6 0
3686 7 0
3687 7 4
3690 7 4
3693 7 0
3694 6 0
3699 6 0
3700 7 0
3701 7 4
3704 7 4
3707 7 0
3708 6 0
3713 6 0
3714 7 0
3715 7 4
3718 7 4
3723 7 4
3726 7 0
3727 6 0
3732 6 0
3733 7 0
3734 7 4
3737 7 4
3740 7 0
3741 6 0
3746 6 0
3747 7 0
3748 7 4
3751 7 4
3754 7 0
3755 6 0
3760 6 0
3761 7 0
3762 7 4
3763 7 0
3764 6 0
3769 6 0
3770 7 0
3771 7 4
3774 7 4
3777 7 0
3778 6 0
3783 6 0
3784 7 0
3785 7 4
3788 7 4
3791 7 0
3792 6 0
3797 6 0
3798 7 0
3799 7 4
3802 7 4
3807 7 4
3810 7 0
3811 6 0
3816 6 0
3817 7 0
3818 7 4
3821 7 4
3824 7 0
3825 6 0
3830 6 0
3831 7 0
3832 7 4
3835 7 4
3838 7 0
3839 6 0
3844 6 0
3845 7 0
3846 7 4
3847 7 0
3848 6 0
3853 6 0
3854 7 0
3855 7 4
3858 7 4
3861 7 0
3862 6 0
3867 6 0
3868 7 0
3869 7 4
3872 7 4
3875 7 0
3876 6 0
3881 6 0
3882 7 0
3883 7 4
3886 7 4
3889 7 0
3890 7 1
3895 7 0
3896 7 0
3897 7 4
3900 7 4
3903 7 4
3904 7 0
3905 7 1
3910 7 0
3911 7 0
3912 7 4
3915 7 4
3918 7 4
3919 7 0
3920 7 1
3925 7 0
3926 7 0
3927 7 4
3930 7 4
3933 7 4
3936 7 4
3939 7 4
3940 7 0
3941 7 1
3946 7 0
3947 7 0
3948 7 4
3951 7 4
3954 7 4
3955 7 0
3956 7 1
3961 7 0
3962 7 0
3963 7 4
3966 7 4
3969 7 4
3970 7 0
3971 7 1
3976 7 0
3977 7 0
3978 7 4
3979 7 0
3980 7 1
3985 7 0
3986 7 0
3987 7 4
3990 7 4
3993 7 4
3994 7 0
3995 7 1
4000 7 0
4001 7 0
4002 7 4
4005 7 4
4008 7 4
4009 7 0
4010 7 1
4015 7 0
4016 7 0
4017 7 4
4020 7 4
4023 7 4
4026 7 4
4029 7 4
4030 7 0
4031 7 1
4036 7 0
4037 7 0
4038 7 4
4041 7 4
4044 7 4
4045 7 0
4046 7 1
4051 7 0
4052 7 0
4053 7 4
4056 7 4
4059 7 4
4060 7 0
4061 7 1
4066 7 0
4067 7 0
4068 7 4
4069 7 0
4070 7 1
4075 7 0
4076 7 0
4077 7 4
4080 7 4
4083 7 4
4084 7 0
4085 7 1
4090 7 0
4091 7 0
4092 7 4
4095 7 4
4098 7 4
4099 7 0
4100 7 1
4105 7 0
4106 7 0
4107 7 4
4110 7 4
4113 7 4
4116 7 4
4119 7 4
4120 7 0
4121 7 1
4126 7 0
4127 7 0
4128 7 4
4131 7 4
4134 7 4
4135 7 0
4136 7 1
4141 7 0
4142 7 0
4143 7 4
4146 7 4
4149 7 4
4150 7 0
4151 7 1
4156 7 0
4157 7 0
4158 7 4
4163 7 1
4169 7 2
4174 7 1
4180 7 2
4185 7 1
4191 7 2
4192 7 1
4198 7 1
4203 7 1
4209 7 1
4214 7 1
4220 7 1
4229 7 1
4235 7 2
4240 7 1
4246 7 2
4251 7 1
4257 7 2
4258 7 1
4264 7 1
4269 7 1
4275 7 1
4280 7 1
4286 7 1
4295 7 1
4301 7 1
4306 7 1
4312 7 2
4317 7 1
4323 7 2
4324 7 1
4330 7 1
4335 7 1
4341 7 1
4346 7 1
4352 7 1
