LAMMPS data file via write_data, version 17 Feb 2022, timestep = 0

2925 atoms
10 atom types
36 bonds
6 bond types
54 angles
6 angle types
0 dihedrals
2 dihedral types
9 impropers
2 improper types

0 25.44 xlo xhi
0 25.44 ylo yhi
-41.458422 32.908 zlo zhi

Masses

1 12.011
2 1.008
3 15.9994
4 15.9994
5 1.008
6 55.845
7 55.845
8 15.9994
9 15.9994
10 1.008

Pair Coeffs # lj/cut/coul/long

1 0.0988 3.31521
2 0.0161 2.4473
3 0.1463 3.04812
4 0.093 3.24287
5 0.0047 0.537925
6 9.0298e-07 4.9062
7 9.0298e-07 4.9062
8 0.1554 3.16554
9 0.1554 3.16554
10 0 0

Bond Coeffs # harmonic

1 361.8 1.105
2 652.57 1.218
3 383.13 1.351
4 563.51 0.973
5 554.135 1
6 0 2.08

Angle Coeffs # harmonic

1 51.617 106.55
2 65.93 123.65
3 65.262 109.49
4 115.745 122.1
5 118.817 130.25
6 30 109.47

Dihedral Coeffs # fourier

1 1 2.3 2 180
2 2 2.3 2 180 1.9 1 0

Improper Coeffs # cvff

1 10.5 -1 2
2 10.5 -1 2

Atoms # full

1585 0 8 -1.05 17.255252 18.255252 -6.064752000000009 0 0 0
1332 0 8 -1.05 17.181582 20.375252 -8.184752000000007 0 0 0
1545 0 8 -1.05 19.375252 16.135252 -6.138422000000009 0 0 0
1625 0 8 -1.05 17.181582 22.421581 -6.138422000000009 0 0 0
1334 0 8 -1.05 19.375252 18.181582 -8.184752000000007 0 0 0
1592 0 8 -1.05 21.421581 18.181582 -6.138422000000009 0 0 0
1588 0 8 -1.05 19.301582 20.301582 -6.064752000000009 0 0 0
3 2 7 1.575 0.2584170000000001 1.2584170000000001 -29.421587 0 0 0
73 2 7 1.575 4.498416999999998 5.498416999999998 -29.421587 0 0 0
1371 0 8 -1.05 15.135252000000001 22.421581 -8.184752000000007 0 0 0
1632 0 8 -1.05 21.495251999999997 22.495251999999997 -6.064752000000009 0 0 0
1582 0 8 -1.05 15.135252000000001 20.375252 -6.138422000000009 0 0 0
1299 0 8 -1.05 21.421581 16.135252 -8.184752000000007 0 0 0
1373 2 7 1.575 17.218417 22.458416999999997 -8.221586999999996 0 0 0
357 2 7 1.575 23.578417 24.578417 -29.421587 0 0 0
1336 2 7 1.575 21.458416999999997 18.218417 -8.221586999999996 0 0 0
1547 2 6 1.05 21.458416999999997 16.098417 -6.101587000000013 0 0 0
7 2 7 1.575 2.378416999999998 3.378416999999998 -29.421587 0 0 0
1589 2 6 1.05 19.338416999999996 18.218417 -6.101587000000013 0 0 0
6 0 8 -1.05 2.341582 1.295252 -29.458421999999995 0 0 0
70 0 8 -1.05 2.415251999999998 5.461580999999999 -29.384752000000002 0 0 0
1329 2 7 1.575 15.098417000000001 20.338416999999996 -8.221586999999996 0 0 0
1622 2 6 1.05 15.098417000000001 22.458416999999997 -6.101587000000013 0 0 0
1583 2 6 1.05 17.218417 20.338416999999996 -6.101587000000013 0 0 0
1296 2 7 1.575 19.338416999999996 16.098417 -8.221586999999996 0 0 0
301 0 8 -1.05 0.22158200000000017 24.615252 -29.384752000000002 0 0 0
1381 1 7 1.575 20.398417 21.398417 -7.161587000000008 0 0 0
4 0 8 -1.05 0.29525200000000007 3.341582 -29.458421999999995 0 0 0
11 0 8 -1.05 4.461580999999999 3.415251999999998 -29.384752000000002 0 0 0
1594 1 7 1.575 22.518417 19.278417 -5.0415870000000105 0 0 0
1627 1 7 1.575 18.278417 23.518417 -5.0415870000000105 0 0 0
1330 1 7 1.575 16.158417 17.158417 -7.161587000000008 0 0 0
60 0 8 -1.05 23.615252 1.2215820000000002 -29.384752000000002 0 0 0
1382 0 8 -1.05 21.421581 22.421581 -10.378423000000009 0 0 0
1339 0 8 -1.05 21.495251999999997 20.301582 -8.258421999999992 0 0 0
1072 0 8 -1.05 15.135252000000001 18.181582 -12.424752000000002 0 0 0
314 0 8 -1.05 4.535251999999998 24.541582000000002 -29.458421999999995 0 0 0
1338 0 8 -1.05 21.495251999999997 18.255252 -10.304751999999997 0 0 0
116 0 8 -1.05 23.541582000000002 5.535251999999998 -29.458421999999995 0 0 0
1377 0 8 -1.05 19.301582 22.495251999999997 -8.258421999999992 0 0 0
75 1 7 1.575 5.5584169999999995 6.5584169999999995 -26.241587 0 0 0
10 1 7 1.575 3.4384169999999994 0.19841699999999918 -28.361587000000004 0 0 0
120 1 7 1.575 24.638417 4.438416999999999 -28.361587000000004 0 0 0
5 1 7 1.575 1.3184170000000002 2.318417 -26.241587 0 0 0
13 2 6 1.05 4.498416999999998 3.378416999999998 -27.301587 0 0 0
58 2 6 1.05 23.578417 1.2584170000000001 -27.301587 0 0 0
68 2 6 1.05 2.378416999999998 5.498416999999998 -27.301587 0 0 0
303 2 6 1.05 0.2584170000000001 24.578417 -27.301587 0 0 0
1 0 8 -1.05 0.22158200000000017 1.2215820000000002 -27.338423000000002 0 0 0
9 0 8 -1.05 2.415251999999998 3.415251999999998 -27.338423000000002 0 0 0
64 0 8 -1.05 0.29525200000000007 5.535251999999998 -27.264751999999998 0 0 0
359 0 8 -1.05 23.615252 24.615252 -27.338423000000002 0 0 0
66 0 8 -1.05 2.341582 5.535251999999998 -25.218422 0 0 0
14 0 8 -1.05 4.535251999999998 1.295252 -27.264751999999998 0 0 0
15 0 8 -1.05 4.535251999999998 3.341582 -25.218422 0 0 0
71 0 8 -1.05 4.461580999999999 5.461580999999999 -27.338423000000002 0 0 0
402 1 7 1.575 24.638417 0.19841699999999918 -24.121587 0 0 0
405 1 7 1.575 1.3184170000000002 6.5584169999999995 -22.001587000000004 0 0 0
371 1 7 1.575 5.5584169999999995 2.318417 -22.001587000000004 0 0 0
408 1 7 1.575 3.4384169999999994 4.438416999999999 -24.121587 0 0 0
309 2 6 1.05 2.378416999999998 24.578417 -25.181586999999997 0 0 0
361 2 6 1.05 0.2584170000000001 1.2584170000000001 -20.941586999999995 0 0 0
409 2 6 1.05 4.498416999999998 5.498416999999998 -20.941586999999995 0 0 0
362 2 6 1.05 0.2584170000000001 3.378416999999998 -23.061587 0 0 0
443 2 6 1.05 23.578417 5.498416999999998 -23.061587 0 0 0
59 2 7 1.575 23.578417 3.378416999999998 -25.181586999999997 0 0 0
367 2 7 1.575 2.378416999999998 1.2584170000000001 -23.061587 0 0 0
578 2 6 1.05 4.498416999999998 24.578417 -23.061587 0 0 0
612 2 7 1.575 23.578417 24.578417 -20.941586999999995 0 0 0
12 2 7 1.575 4.498416999999998 1.2584170000000001 -25.181586999999997 0 0 0
62 2 7 1.575 0.2584170000000001 5.498416999999998 -25.181586999999997 0 0 0
368 2 7 1.575 2.378416999999998 3.378416999999998 -20.941586999999995 0 0 0
312 0 8 -1.05 4.461580999999999 24.615252 -25.144751999999993 0 0 0
365 0 8 -1.05 2.341582 1.295252 -20.978422 0 0 0
406 0 8 -1.05 2.415251999999998 5.461580999999999 -20.904752 0 0 0
401 0 8 -1.05 23.615252 3.415251999999998 -23.098421999999996 0 0 0
411 0 8 -1.05 4.535251999999998 5.535251999999998 -23.024752000000003 0 0 0
118 0 8 -1.05 23.615252 5.461580999999999 -25.144751999999993 0 0 0
366 0 8 -1.05 2.341582 3.341582 -23.024752000000003 0 0 0
572 0 8 -1.05 0.22158200000000017 24.615252 -20.904752 0 0 0
369 0 8 -1.05 4.461580999999999 1.2215820000000002 -23.098421999999996 0 0 0
364 0 8 -1.05 0.29525200000000007 3.341582 -20.978422 0 0 0
370 0 8 -1.05 4.461580999999999 3.415251999999998 -20.904752 0 0 0
8 0 8 -1.05 2.415251999999998 1.2215820000000002 -25.144751999999993 0 0 0
403 0 8 -1.05 0.22158200000000017 5.461580999999999 -23.098421999999996 0 0 0
575 0 8 -1.05 2.415251999999998 24.615252 -23.098421999999996 0 0 0
400 0 8 -1.05 23.615252 1.2215820000000002 -20.904752 0 0 0
2 0 8 -1.05 0.22158200000000017 3.415251999999998 -25.144751999999993 0 0 0
363 0 8 -1.05 0.29525200000000007 1.295252 -23.024752000000003 0 0 0
305 0 8 -1.05 0.29525200000000007 24.541582000000002 -25.218422 0 0 0
307 0 8 -1.05 2.341582 24.541582000000002 -27.264751999999998 0 0 0
580 0 8 -1.05 4.535251999999998 24.541582000000002 -20.978422 0 0 0
57 0 8 -1.05 23.541582000000002 3.341582 -27.264751999999998 0 0 0
56 0 8 -1.05 23.541582000000002 1.295252 -25.218422 0 0 0
441 0 8 -1.05 23.541582000000002 5.535251999999998 -20.978422 0 0 0
610 0 8 -1.05 23.541582000000002 24.541582000000002 -23.024752000000003 0 0 0
665 1 7 1.575 5.5584169999999995 6.5584169999999995 -17.761587000000002 0 0 0
618 1 7 1.575 3.4384169999999994 0.19841699999999918 -19.881586999999993 0 0 0
696 1 7 1.575 24.638417 4.438416999999999 -19.881586999999993 0 0 0
615 1 7 1.575 1.3184170000000002 2.318417 -17.761587000000002 0 0 0
620 2 6 1.05 4.498416999999998 3.378416999999998 -18.821587000000005 0 0 0
653 2 6 1.05 23.578417 1.2584170000000001 -18.821587000000005 0 0 0
661 2 7 1.575 2.378416999999998 5.498416999999998 -18.821587000000005 0 0 0
824 2 7 1.575 0.2584170000000001 24.578417 -18.821587000000005 0 0 0
613 0 8 -1.05 0.22158200000000017 1.2215820000000002 -18.858423000000005 0 0 0
617 0 8 -1.05 2.415251999999998 3.415251999999998 -18.858423000000005 0 0 0
657 0 8 -1.05 0.29525200000000007 5.535251999999998 -18.784752000000008 0 0 0
863 0 8 -1.05 23.615252 24.615252 -18.858423000000005 0 0 0
659 0 8 -1.05 2.341582 5.535251999999998 -16.738422000000003 0 0 0
621 0 8 -1.05 4.535251999999998 1.295252 -18.784752000000008 0 0 0
622 0 8 -1.05 4.535251999999998 3.341582 -16.738422000000003 0 0 0
663 0 8 -1.05 4.461580999999999 5.461580999999999 -18.858423000000005 0 0 0
909 1 7 1.575 24.638417 0.19841699999999918 -15.641586999999998 0 0 0
912 1 7 1.575 1.3184170000000002 6.5584169999999995 -13.521587000000004 0 0 0
876 1 7 1.575 5.5584169999999995 2.318417 -13.521587000000004 0 0 0
915 1 7 1.575 3.4384169999999994 4.438416999999999 -15.641586999999998 0 0 0
830 2 7 1.575 2.378416999999998 24.578417 -16.701587 0 0 0
866 2 6 1.05 0.2584170000000001 3.378416999999998 -14.581587000000003 0 0 0
952 2 7 1.575 23.578417 5.498416999999998 -14.581587000000003 0 0 0
654 2 6 1.05 23.578417 3.378416999999998 -16.701587 0 0 0
871 2 7 1.575 2.378416999999998 1.2584170000000001 -14.581587000000003 0 0 0
1097 2 6 1.05 4.498416999999998 24.578417 -14.581587000000003 0 0 0
619 2 6 1.05 4.498416999999998 1.2584170000000001 -16.701587 0 0 0
655 2 7 1.575 0.2584170000000001 5.498416999999998 -16.701587 0 0 0
832 0 8 -1.05 4.461580999999999 24.615252 -16.664751999999996 0 0 0
869 0 8 -1.05 2.341582 1.295252 -12.498421999999998 0 0 0
908 0 8 -1.05 23.615252 3.415251999999998 -14.618421999999995 0 0 0
918 0 8 -1.05 4.535251999999998 5.535251999999998 -14.544752000000003 0 0 0
694 0 8 -1.05 23.615252 5.461580999999999 -16.664751999999996 0 0 0
870 0 8 -1.05 2.341582 3.341582 -14.544752000000003 0 0 0
874 0 8 -1.05 4.461580999999999 1.2215820000000002 -14.618421999999995 0 0 0
868 0 8 -1.05 0.29525200000000007 3.341582 -12.498421999999998 0 0 0
616 0 8 -1.05 2.415251999999998 1.2215820000000002 -16.664751999999996 0 0 0
910 0 8 -1.05 0.22158200000000017 5.461580999999999 -14.618421999999995 0 0 0
1094 0 8 -1.05 2.415251999999998 24.615252 -14.618421999999995 0 0 0
614 0 8 -1.05 0.22158200000000017 3.415251999999998 -16.664751999999996 0 0 0
867 0 8 -1.05 0.29525200000000007 1.295252 -14.544752000000003 0 0 0
826 0 8 -1.05 0.29525200000000007 24.541582000000002 -16.738422000000003 0 0 0
828 0 8 -1.05 2.341582 24.541582000000002 -18.784752000000008 0 0 0
1099 0 8 -1.05 4.535251999999998 24.541582000000002 -12.498421999999998 0 0 0
652 0 8 -1.05 23.541582000000002 3.341582 -18.784752000000008 0 0 0
651 0 8 -1.05 23.541582000000002 1.295252 -16.738422000000003 0 0 0
950 0 8 -1.05 23.541582000000002 5.535251999999998 -12.498421999999998 0 0 0
1131 0 8 -1.05 23.541582000000002 24.541582000000002 -14.544752000000003 0 0 0
1188 1 7 1.575 5.5584169999999995 6.5584169999999995 -9.281586999999998 0 0 0
873 1 7 1.575 3.4384169999999994 0.19841699999999918 -11.401587000000003 0 0 0
954 1 7 1.575 24.638417 4.438416999999999 -11.401587000000003 0 0 0
1137 1 7 1.575 1.3184170000000002 2.318417 -9.281586999999998 0 0 0
865 2 6 1.05 0.2584170000000001 1.2584170000000001 -12.461587000000009 0 0 0
916 2 6 1.05 4.498416999999998 5.498416999999998 -12.461587000000009 0 0 0
1141 2 6 1.05 4.498416999999998 3.378416999999998 -10.341587 0 0 0
1174 2 7 1.575 23.578417 1.2584170000000001 -10.341587 0 0 0
1183 2 7 1.575 2.378416999999998 5.498416999999998 -10.341587 0 0 0
1346 2 6 1.05 0.2584170000000001 24.578417 -10.341587 0 0 0
1133 2 7 1.575 23.578417 24.578417 -12.461587000000009 0 0 0
872 2 7 1.575 2.378416999999998 3.378416999999998 -12.461587000000009 0 0 0
913 0 8 -1.05 2.415251999999998 5.461580999999999 -12.424752000000002 0 0 0
1135 0 8 -1.05 0.22158200000000017 1.2215820000000002 -10.378423000000009 0 0 0
1139 0 8 -1.05 2.415251999999998 3.415251999999998 -10.378423000000009 0 0 0
1091 0 8 -1.05 0.22158200000000017 24.615252 -12.424752000000002 0 0 0
1179 0 8 -1.05 0.29525200000000007 5.535251999999998 -10.304751999999997 0 0 0
1386 0 8 -1.05 23.615252 24.615252 -10.378423000000009 0 0 0
875 0 8 -1.05 4.461580999999999 3.415251999999998 -12.424752000000002 0 0 0
1181 0 8 -1.05 2.341582 5.535251999999998 -8.258421999999992 0 0 0
1142 0 8 -1.05 4.535251999999998 1.295252 -10.304751999999997 0 0 0
907 0 8 -1.05 23.615252 1.2215820000000002 -12.424752000000002 0 0 0
1143 0 8 -1.05 4.535251999999998 3.341582 -8.258421999999992 0 0 0
1186 0 8 -1.05 4.461580999999999 5.461580999999999 -10.378423000000009 0 0 0
1176 1 7 1.575 24.638417 0.19841699999999918 -7.161587000000008 0 0 0
1431 1 7 1.575 1.3184170000000002 6.5584169999999995 -5.0415870000000105 0 0 0
1398 1 7 1.575 5.5584169999999995 2.318417 -5.0415870000000105 0 0 0
1185 1 7 1.575 3.4384169999999994 4.438416999999999 -7.161587000000008 0 0 0
1352 2 7 1.575 2.378416999999998 24.578417 -8.221586999999996 0 0 0
1388 2 7 1.575 0.2584170000000001 3.378416999999998 -6.101587000000013 0 0 0
1468 2 7 1.575 23.578417 5.498416999999998 -6.101587000000013 0 0 0
1175 2 6 1.05 23.578417 3.378416999999998 -8.221586999999996 0 0 0
1393 2 6 1.05 2.378416999999998 1.2584170000000001 -6.101587000000013 0 0 0
1603 2 6 1.05 4.498416999999998 24.578417 -6.101587000000013 0 0 0
1140 2 7 1.575 4.498416999999998 1.2584170000000001 -8.221586999999996 0 0 0
1177 2 6 1.05 0.2584170000000001 5.498416999999998 -8.221586999999996 0 0 0
1355 0 8 -1.05 4.461580999999999 24.615252 -8.184752000000007 0 0 0
1428 0 8 -1.05 23.615252 3.415251999999998 -6.138422000000009 0 0 0
1436 0 8 -1.05 4.535251999999998 5.535251999999998 -6.064752000000009 0 0 0
1217 0 8 -1.05 23.615252 5.461580999999999 -8.184752000000007 0 0 0
1392 0 8 -1.05 2.341582 3.341582 -6.064752000000009 0 0 0
1396 0 8 -1.05 4.461580999999999 1.2215820000000002 -6.138422000000009 0 0 0
1138 0 8 -1.05 2.415251999999998 1.2215820000000002 -8.184752000000007 0 0 0
1429 0 8 -1.05 0.22158200000000017 5.461580999999999 -6.138422000000009 0 0 0
1601 0 8 -1.05 2.415251999999998 24.615252 -6.138422000000009 0 0 0
1136 0 8 -1.05 0.22158200000000017 3.415251999999998 -8.184752000000007 0 0 0
1389 0 8 -1.05 0.29525200000000007 1.295252 -6.064752000000009 0 0 0
1348 0 8 -1.05 0.29525200000000007 24.541582000000002 -8.258421999999992 0 0 0
1350 0 8 -1.05 2.341582 24.541582000000002 -10.304751999999997 0 0 0
1173 0 8 -1.05 23.541582000000002 3.341582 -10.304751999999997 0 0 0
1172 0 8 -1.05 23.541582000000002 1.295252 -8.258421999999992 0 0 0
1635 0 8 -1.05 23.541582000000002 24.541582000000002 -6.064752000000009 0 0 0
1085 0 8 -1.05 21.421581 20.375252 -12.424752000000002 0 0 0
1288 0 8 -1.05 15.135252000000001 16.135252 -10.378423000000009 0 0 0
1375 0 8 -1.05 17.255252 22.495251999999997 -10.304751999999997 0 0 0
1031 0 8 -1.05 17.181582 16.135252 -12.424752000000002 0 0 0
1335 0 8 -1.05 19.375252 20.375252 -10.378423000000009 0 0 0
1331 0 8 -1.05 17.181582 18.181582 -10.378423000000009 0 0 0
1123 0 8 -1.05 19.375252 22.421581 -12.424752000000002 0 0 0
1082 2 7 1.575 19.338416999999996 20.338416999999996 -12.461587000000009 0 0 0
1028 2 6 1.05 15.098417000000001 16.098417 -12.461587000000009 0 0 0
1290 2 6 1.05 17.218417 16.098417 -10.341587 0 0 0
1379 2 7 1.575 19.338416999999996 22.458416999999997 -10.341587 0 0 0
1328 2 7 1.575 15.098417000000001 18.218417 -10.341587 0 0 0
1337 2 6 1.05 21.458416999999997 20.338416999999996 -10.341587 0 0 0
1126 2 6 1.05 21.458416999999997 22.458416999999997 -12.461587000000009 0 0 0
1075 2 7 1.575 17.218417 18.218417 -12.461587000000009 0 0 0
1333 1 7 1.575 18.278417 19.278417 -9.281586999999998 0 0 0
1119 1 7 1.575 16.158417 21.398417 -11.401587000000003 0 0 0
1083 1 7 1.575 20.398417 17.158417 -11.401587000000003 0 0 0
1384 1 7 1.575 22.518417 23.518417 -9.281586999999998 0 0 0
1294 0 8 -1.05 19.301582 16.061581999999998 -10.304751999999997 0 0 0
1292 0 8 -1.05 17.255252 16.061581999999998 -8.258421999999992 0 0 0
1326 0 8 -1.05 15.061581999999998 18.255252 -8.258421999999992 0 0 0
1327 0 8 -1.05 15.061581999999998 20.301582 -10.304751999999997 0 0 0
1536 0 8 -1.05 15.061581999999998 16.061581999999998 -6.064752000000009 0 0 0
1077 0 8 -1.05 17.255252 18.255252 -14.544752000000003 0 0 0
810 0 8 -1.05 17.181582 20.375252 -16.664751999999996 0 0 0
1034 0 8 -1.05 19.375252 16.135252 -14.618421999999995 0 0 0
1120 0 8 -1.05 17.181582 22.421581 -14.618421999999995 0 0 0
812 0 8 -1.05 19.375252 18.181582 -16.664751999999996 0 0 0
1078 0 8 -1.05 17.255252 20.301582 -12.498421999999998 0 0 0
1084 0 8 -1.05 21.421581 18.181582 -14.618421999999995 0 0 0
1080 0 8 -1.05 19.301582 20.301582 -14.544752000000003 0 0 0
848 0 8 -1.05 15.135252000000001 22.421581 -16.664751999999996 0 0 0
1128 0 8 -1.05 21.495251999999997 22.495251999999997 -14.544752000000003 0 0 0
1073 0 8 -1.05 15.135252000000001 20.375252 -14.618421999999995 0 0 0
1079 0 8 -1.05 19.301582 18.255252 -12.498421999999998 0 0 0
776 0 8 -1.05 21.421581 16.135252 -16.664751999999996 0 0 0
851 2 7 1.575 17.218417 22.458416999999997 -16.701587 0 0 0
815 2 7 1.575 21.458416999999997 18.218417 -16.701587 0 0 0
1037 2 6 1.05 21.458416999999997 16.098417 -14.581587000000003 0 0 0
1081 2 6 1.05 19.338416999999996 18.218417 -14.581587000000003 0 0 0
808 2 7 1.575 15.098417000000001 20.338416999999996 -16.701587 0 0 0
1117 2 6 1.05 15.098417000000001 22.458416999999997 -14.581587000000003 0 0 0
1076 2 6 1.05 17.218417 20.338416999999996 -14.581587000000003 0 0 0
774 2 7 1.575 19.338416999999996 16.098417 -16.701587 0 0 0
1125 1 7 1.575 20.398417 21.398417 -15.641586999999998 0 0 0
1086 1 7 1.575 22.518417 19.278417 -13.521587000000004 0 0 0
1122 1 7 1.575 18.278417 23.518417 -13.521587000000004 0 0 0
1074 1 7 1.575 16.158417 17.158417 -15.641586999999998 0 0 0
859 0 8 -1.05 21.421581 22.421581 -18.858423000000005 0 0 0
818 0 8 -1.05 21.495251999999997 20.301582 -16.738422000000003 0 0 0
817 0 8 -1.05 21.495251999999997 18.255252 -18.784752000000008 0 0 0
855 0 8 -1.05 19.301582 22.495251999999997 -16.738422000000003 0 0 0
765 0 8 -1.05 15.135252000000001 16.135252 -18.858423000000005 0 0 0
853 0 8 -1.05 17.255252 22.495251999999997 -18.784752000000008 0 0 0
813 0 8 -1.05 19.375252 20.375252 -18.858423000000005 0 0 0
809 0 8 -1.05 17.181582 18.181582 -18.858423000000005 0 0 0
768 2 7 1.575 17.218417 16.098417 -18.821587000000005 0 0 0
857 2 6 1.05 19.338416999999996 22.458416999999997 -18.821587000000005 0 0 0
807 2 6 1.05 15.098417000000001 18.218417 -18.821587000000005 0 0 0
816 2 6 1.05 21.458416999999997 20.338416999999996 -18.821587000000005 0 0 0
811 1 7 1.575 18.278417 19.278417 -17.761587000000002 0 0 0
850 1 7 1.575 16.158417 21.398417 -19.881586999999993 0 0 0
814 1 7 1.575 20.398417 17.158417 -19.881586999999993 0 0 0
861 1 7 1.575 22.518417 23.518417 -17.761587000000002 0 0 0
1039 0 8 -1.05 21.495251999999997 16.061581999999998 -12.498421999999998 0 0 0
772 0 8 -1.05 19.301582 16.061581999999998 -18.784752000000008 0 0 0
770 0 8 -1.05 17.255252 16.061581999999998 -16.738422000000003 0 0 0
1115 0 8 -1.05 15.061581999999998 22.495251999999997 -12.498421999999998 0 0 0
805 0 8 -1.05 15.061581999999998 18.255252 -16.738422000000003 0 0 0
806 0 8 -1.05 15.061581999999998 20.301582 -18.784752000000008 0 0 0
1026 0 8 -1.05 15.061581999999998 16.061581999999998 -14.544752000000003 0 0 0
559 0 8 -1.05 17.255252 18.255252 -23.024752000000003 0 0 0
282 0 8 -1.05 17.181582 20.375252 -25.144751999999993 0 0 0
554 0 8 -1.05 15.135252000000001 18.181582 -20.904752 0 0 0
519 0 8 -1.05 19.375252 16.135252 -23.098421999999996 0 0 0
599 0 8 -1.05 17.181582 22.421581 -23.098421999999996 0 0 0
288 0 8 -1.05 19.375252 18.181582 -25.144751999999993 0 0 0
566 0 8 -1.05 21.421581 20.375252 -20.904752 0 0 0
560 0 8 -1.05 17.255252 20.301582 -20.978422 0 0 0
565 0 8 -1.05 21.421581 18.181582 -23.098421999999996 0 0 0
516 0 8 -1.05 17.181582 16.135252 -20.904752 0 0 0
562 0 8 -1.05 19.301582 20.301582 -23.024752000000003 0 0 0
338 0 8 -1.05 15.135252000000001 22.421581 -25.144751999999993 0 0 0
607 0 8 -1.05 21.495251999999997 22.495251999999997 -23.024752000000003 0 0 0
555 0 8 -1.05 15.135252000000001 20.375252 -23.098421999999996 0 0 0
602 0 8 -1.05 19.375252 22.421581 -20.904752 0 0 0
561 0 8 -1.05 19.301582 18.255252 -20.978422 0 0 0
232 0 8 -1.05 21.421581 16.135252 -25.144751999999993 0 0 0
564 2 7 1.575 19.338416999999996 20.338416999999996 -20.941586999999995 0 0 0
342 2 7 1.575 17.218417 22.458416999999997 -25.181586999999997 0 0 0
292 2 6 1.05 21.458416999999997 18.218417 -25.181586999999997 0 0 0
514 2 7 1.575 15.098417000000001 16.098417 -20.941586999999995 0 0 0
522 2 6 1.05 21.458416999999997 16.098417 -23.061587 0 0 0
563 2 7 1.575 19.338416999999996 18.218417 -23.061587 0 0 0
279 2 6 1.05 15.098417000000001 20.338416999999996 -25.181586999999997 0 0 0
597 2 7 1.575 15.098417000000001 22.458416999999997 -23.061587 0 0 0
74 0 8 -1.05 4.535251999999998 7.581582 -29.458421999999995 0 0 0
558 2 6 1.05 17.218417 20.338416999999996 -23.061587 0 0 0
605 2 7 1.575 21.458416999999997 22.458416999999997 -20.941586999999995 0 0 0
557 2 6 1.05 17.218417 18.218417 -20.941586999999995 0 0 0
229 2 7 1.575 19.338416999999996 16.098417 -25.181586999999997 0 0 0
604 1 7 1.575 20.398417 21.398417 -24.121587 0 0 0
567 1 7 1.575 22.518417 19.278417 -22.001587000000004 0 0 0
601 1 7 1.575 18.278417 23.518417 -22.001587000000004 0 0 0
123 2 7 1.575 0.2584170000000001 9.738417000000002 -29.421587 0 0 0
193 2 6 1.05 4.498416999999998 13.978416999999997 -29.421587 0 0 0
556 1 7 1.575 16.158417 17.158417 -24.121587 0 0 0
351 0 8 -1.05 21.421581 22.421581 -27.338423000000002 0 0 0
295 0 8 -1.05 21.495251999999997 20.301582 -25.218422 0 0 0
294 0 8 -1.05 21.495251999999997 18.255252 -27.264751999999998 0 0 0
346 0 8 -1.05 19.301582 22.495251999999997 -25.218422 0 0 0
117 2 6 1.05 23.578417 7.618417 -29.421587 0 0 0
219 0 8 -1.05 15.135252000000001 16.135252 -27.338423000000002 0 0 0
344 0 8 -1.05 17.255252 22.495251999999997 -27.264751999999998 0 0 0
127 2 6 1.05 2.378416999999998 11.858417 -29.421587 0 0 0
289 0 8 -1.05 19.375252 20.375252 -27.338423000000002 0 0 0
126 0 8 -1.05 2.341582 9.775252000000002 -29.458421999999995 0 0 0
190 0 8 -1.05 2.415251999999998 13.941581 -29.384752000000002 0 0 0
281 0 8 -1.05 17.181582 18.181582 -27.338423000000002 0 0 0
223 2 6 1.05 17.218417 16.098417 -27.301587 0 0 0
348 2 6 1.05 19.338416999999996 22.458416999999997 -27.301587 0 0 0
278 2 6 1.05 15.098417000000001 18.218417 -27.301587 0 0 0
61 0 8 -1.05 0.22158200000000017 7.655252 -29.384752000000002 0 0 0
293 2 6 1.05 21.458416999999997 20.338416999999996 -27.301587 0 0 0
124 0 8 -1.05 0.29525200000000007 11.821582 -29.458421999999995 0 0 0
131 0 8 -1.05 4.461580999999999 11.895252 -29.384752000000002 0 0 0
285 1 7 1.575 18.278417 19.278417 -26.241587 0 0 0
340 1 7 1.575 16.158417 21.398417 -28.361587000000004 0 0 0
290 1 7 1.575 20.398417 17.158417 -28.361587000000004 0 0 0
180 0 8 -1.05 23.615252 9.701582000000002 -29.384752000000002 0 0 0
355 1 7 1.575 22.518417 23.518417 -26.241587 0 0 0
524 0 8 -1.05 21.495251999999997 16.061581999999998 -20.978422 0 0 0
227 0 8 -1.05 19.301582 16.061581999999998 -27.264751999999998 0 0 0
225 0 8 -1.05 17.255252 16.061581999999998 -25.218422 0 0 0
236 0 8 -1.05 23.541582000000002 14.015251999999997 -29.458421999999995 0 0 0
65 0 8 -1.05 0.29525200000000007 7.581582 -25.218422 0 0 0
67 0 8 -1.05 2.341582 7.581582 -27.264751999999998 0 0 0
412 0 8 -1.05 4.535251999999998 7.581582 -20.978422 0 0 0
195 1 7 1.575 5.5584169999999995 15.038416999999999 -26.241587 0 0 0
130 1 7 1.575 3.4384169999999994 8.678417 -28.361587000000004 0 0 0
240 1 7 1.575 24.638417 12.918416999999998 -28.361587000000004 0 0 0
125 1 7 1.575 1.3184170000000002 10.798417 -26.241587 0 0 0
133 2 7 1.575 4.498416999999998 11.858417 -27.301587 0 0 0
178 2 7 1.575 23.578417 9.738417000000002 -27.301587 0 0 0
188 2 6 1.05 2.378416999999998 13.978416999999997 -27.301587 0 0 0
63 2 6 1.05 0.2584170000000001 7.618417 -27.301587 0 0 0
121 0 8 -1.05 0.22158200000000017 9.701582000000002 -27.338423000000002 0 0 0
129 0 8 -1.05 2.415251999999998 11.895252 -27.338423000000002 0 0 0
184 0 8 -1.05 0.29525200000000007 14.015251999999997 -27.264751999999998 0 0 0
119 0 8 -1.05 23.615252 7.655252 -27.338423000000002 0 0 0
186 0 8 -1.05 2.341582 14.015251999999997 -25.218422 0 0 0
134 0 8 -1.05 4.535251999999998 9.775252000000002 -27.264751999999998 0 0 0
135 0 8 -1.05 4.535251999999998 11.821582 -25.218422 0 0 0
191 0 8 -1.05 4.461580999999999 13.941581 -27.338423000000002 0 0 0
486 1 7 1.575 24.638417 8.678417 -24.121587 0 0 0
489 1 7 1.575 1.3184170000000002 15.038416999999999 -22.001587000000004 0 0 0
455 1 7 1.575 5.5584169999999995 10.798417 -22.001587000000004 0 0 0
492 1 7 1.575 3.4384169999999994 12.918416999999998 -24.121587 0 0 0
69 2 7 1.575 2.378416999999998 7.618417 -25.181586999999997 0 0 0
445 2 7 1.575 0.2584170000000001 9.738417000000002 -20.941586999999995 0 0 0
493 2 7 1.575 4.498416999999998 13.978416999999997 -20.941586999999995 0 0 0
446 2 6 1.05 0.2584170000000001 11.858417 -23.061587 0 0 0
527 2 7 1.575 23.578417 13.978416999999997 -23.061587 0 0 0
179 2 6 1.05 23.578417 11.858417 -25.181586999999997 0 0 0
451 2 7 1.575 2.378416999999998 9.738417000000002 -23.061587 0 0 0
410 2 6 1.05 4.498416999999998 7.618417 -23.061587 0 0 0
444 2 7 1.575 23.578417 7.618417 -20.941586999999995 0 0 0
132 2 6 1.05 4.498416999999998 9.738417000000002 -25.181586999999997 0 0 0
182 2 7 1.575 0.2584170000000001 13.978416999999997 -25.181586999999997 0 0 0
452 2 6 1.05 2.378416999999998 11.858417 -20.941586999999995 0 0 0
72 0 8 -1.05 4.461580999999999 7.655252 -25.144751999999993 0 0 0
449 0 8 -1.05 2.341582 9.775252000000002 -20.978422 0 0 0
490 0 8 -1.05 2.415251999999998 13.941581 -20.904752 0 0 0
485 0 8 -1.05 23.615252 11.895252 -23.098421999999996 0 0 0
495 0 8 -1.05 4.535251999999998 14.015251999999997 -23.024752000000003 0 0 0
238 0 8 -1.05 23.615252 13.941581 -25.144751999999993 0 0 0
450 0 8 -1.05 2.341582 11.821582 -23.024752000000003 0 0 0
404 0 8 -1.05 0.22158200000000017 7.655252 -20.904752 0 0 0
453 0 8 -1.05 4.461580999999999 9.701582000000002 -23.098421999999996 0 0 0
448 0 8 -1.05 0.29525200000000007 11.821582 -20.978422 0 0 0
454 0 8 -1.05 4.461580999999999 11.895252 -20.904752 0 0 0
128 0 8 -1.05 2.415251999999998 9.701582000000002 -25.144751999999993 0 0 0
487 0 8 -1.05 0.22158200000000017 13.941581 -23.098421999999996 0 0 0
407 0 8 -1.05 2.415251999999998 7.655252 -23.098421999999996 0 0 0
484 0 8 -1.05 23.615252 9.701582000000002 -20.904752 0 0 0
122 0 8 -1.05 0.22158200000000017 11.895252 -25.144751999999993 0 0 0
447 0 8 -1.05 0.29525200000000007 9.775252000000002 -23.024752000000003 0 0 0
442 0 8 -1.05 23.541582000000002 7.581582 -23.024752000000003 0 0 0
177 0 8 -1.05 23.541582000000002 11.821582 -27.264751999999998 0 0 0
176 0 8 -1.05 23.541582000000002 9.775252000000002 -25.218422 0 0 0
525 0 8 -1.05 23.541582000000002 14.015251999999997 -20.978422 0 0 0
658 0 8 -1.05 0.29525200000000007 7.581582 -16.738422000000003 0 0 0
660 0 8 -1.05 2.341582 7.581582 -18.784752000000008 0 0 0
919 0 8 -1.05 4.535251999999998 7.581582 -12.498421999999998 0 0 0
749 1 7 1.575 5.5584169999999995 15.038416999999999 -17.761587000000002 0 0 0
702 1 7 1.575 3.4384169999999994 8.678417 -19.881586999999993 0 0 0
780 1 7 1.575 24.638417 12.918416999999998 -19.881586999999993 0 0 0
699 1 7 1.575 1.3184170000000002 10.798417 -17.761587000000002 0 0 0
704 2 7 1.575 4.498416999999998 11.858417 -18.821587000000005 0 0 0
737 2 6 1.05 23.578417 9.738417000000002 -18.821587000000005 0 0 0
745 2 6 1.05 2.378416999999998 13.978416999999997 -18.821587000000005 0 0 0
656 2 6 1.05 0.2584170000000001 7.618417 -18.821587000000005 0 0 0
697 0 8 -1.05 0.22158200000000017 9.701582000000002 -18.858423000000005 0 0 0
701 0 8 -1.05 2.415251999999998 11.895252 -18.858423000000005 0 0 0
741 0 8 -1.05 0.29525200000000007 14.015251999999997 -18.784752000000008 0 0 0
695 0 8 -1.05 23.615252 7.655252 -18.858423000000005 0 0 0
743 0 8 -1.05 2.341582 14.015251999999997 -16.738422000000003 0 0 0
705 0 8 -1.05 4.535251999999998 9.775252000000002 -18.784752000000008 0 0 0
706 0 8 -1.05 4.535251999999998 11.821582 -16.738422000000003 0 0 0
747 0 8 -1.05 4.461580999999999 13.941581 -18.858423000000005 0 0 0
999 1 7 1.575 24.638417 8.678417 -15.641586999999998 0 0 0
1002 1 7 1.575 1.3184170000000002 15.038416999999999 -13.521587000000004 0 0 0
966 1 7 1.575 5.5584169999999995 10.798417 -13.521587000000004 0 0 0
1005 1 7 1.575 3.4384169999999994 12.918416999999998 -15.641586999999998 0 0 0
662 2 6 1.05 2.378416999999998 7.618417 -16.701587 0 0 0
956 2 6 1.05 0.2584170000000001 11.858417 -14.581587000000003 0 0 0
1042 2 6 1.05 23.578417 13.978416999999997 -14.581587000000003 0 0 0
738 2 7 1.575 23.578417 11.858417 -16.701587 0 0 0
961 2 7 1.575 2.378416999999998 9.738417000000002 -14.581587000000003 0 0 0
917 2 6 1.05 4.498416999999998 7.618417 -14.581587000000003 0 0 0
703 2 7 1.575 4.498416999999998 9.738417000000002 -16.701587 0 0 0
739 2 7 1.575 0.2584170000000001 13.978416999999997 -16.701587 0 0 0
664 0 8 -1.05 4.461580999999999 7.655252 -16.664751999999996 0 0 0
959 0 8 -1.05 2.341582 9.775252000000002 -12.498421999999998 0 0 0
998 0 8 -1.05 23.615252 11.895252 -14.618421999999995 0 0 0
1008 0 8 -1.05 4.535251999999998 14.015251999999997 -14.544752000000003 0 0 0
778 0 8 -1.05 23.615252 13.941581 -16.664751999999996 0 0 0
960 0 8 -1.05 2.341582 11.821582 -14.544752000000003 0 0 0
964 0 8 -1.05 4.461580999999999 9.701582000000002 -14.618421999999995 0 0 0
958 0 8 -1.05 0.29525200000000007 11.821582 -12.498421999999998 0 0 0
700 0 8 -1.05 2.415251999999998 9.701582000000002 -16.664751999999996 0 0 0
1000 0 8 -1.05 0.22158200000000017 13.941581 -14.618421999999995 0 0 0
914 0 8 -1.05 2.415251999999998 7.655252 -14.618421999999995 0 0 0
698 0 8 -1.05 0.22158200000000017 11.895252 -16.664751999999996 0 0 0
957 0 8 -1.05 0.29525200000000007 9.775252000000002 -14.544752000000003 0 0 0