LAMMPS data file via write_data, version 17 Feb 2022, timestep = 128

2925 atoms
10 atom types
36 bonds
6 bond types
54 angles
6 angle types
0 dihedrals
2 dihedral types
9 impropers
2 improper types

0 25.44 xlo xhi
0 25.44 ylo yhi
-41.458422 32.908 zlo zhi

Masses

1 12.011
2 1.008
3 15.9994
4 15.9994
5 1.008
6 55.845
7 55.845
8 15.9994
9 15.9994
10 1.008

Pair Coeffs # lj/cut/coul/long

1 0.0988 3.31521
2 0.0161 2.4473
3 0.1463 3.04812
4 0.093 3.24287
5 0.0047 0.537925
6 9.0298e-07 4.9062
7 9.0298e-07 4.9062
8 0.1554 3.16554
9 0.1554 3.16554
10 0 0

Bond Coeffs # harmonic

1 361.8 1.105
2 652.57 1.218
3 383.13 1.351
4 563.51 0.973
5 554.135 1
6 0 2.08

Angle Coeffs # harmonic

1 51.617 106.55
2 65.93 123.65
3 65.262 109.49
4 115.745 122.1
5 118.817 130.25
6 30 109.47

Dihedral Coeffs # fourier

1 1 2.3 2 180
2 2 2.3 2 180 1.9 1 0

Improper Coeffs # cvff

1 10.5 -1 2
2 10.5 -1 2

Atoms # full

3 0 7 1.575 0.2724606779642973 1.2453735934996752 -29.509514597341273 0 0 0
73 0 7 1.575 4.508278637445216 5.48492026814368 -29.55278793864621 0 0 0
7 0 7 1.575 2.3946194513144325 3.3698894037408333 -29.532787970042378 0 0 0
6 0 8 -1.05 2.2574128338609762 1.3934695953361038 -29.524029166407058 0 0 0
70 0 8 -1.05 2.558406179363322 5.332746940384734 -29.590870546194356 0 0 0
4 0 8 -1.05 0.4217339349046336 3.227656987469346 -29.4607920676578 0 0 0
11 0 8 -1.05 4.369352035195936 3.523242346815466 -29.591328540146787 0 0 0
10 0 7 1.575 3.4399078775047705 0.16443865465020174 -28.69955916140281 0 0 0
13 0 6 1.05 4.555143084327247 3.3535626108561165 -27.604937227969756 0 0 0
68 0 6 1.05 2.341367114178951 5.517110090609513 -27.61819025447332 0 0 0
1 0 8 -1.05 0.21990482961704114 1.1840836031646809 -27.435030035579853 0 0 0
9 0 8 -1.05 2.486417870169586 3.43150615117362 -27.448509918183554 0 0 0
64 0 8 -1.05 0.27529858908784566 5.469136150675462 -27.3205781481727 0 0 0
14 0 8 -1.05 4.592637293929396 1.2132098033670016 -27.40063437185631 0 0 0
71 0 8 -1.05 4.467610731623744 5.4410617805586545 -27.4947351100374 0 0 0
74 0 8 -1.05 4.663457682574837 7.483069353492362 -29.53002675526802 0 0 0
61 0 8 -1.05 0.22975894691507476 7.81939699178317 -29.854158675701115 0 0 0
67 0 8 -1.05 2.3680650648958173 7.618607889805929 -27.38615461305196 0 0 0
63 0 6 1.05 0.29145144558137753 7.463440889167119 -27.917434506585284 0 0 0
76 0 8 -1.05 6.502002100461749 5.657441959433378 -29.554384621962754 0 0 0
20 0 8 -1.05 6.807808719975028 1.1121759412212477 -29.50154484304516 0 0 0
17 0 8 -1.05 6.672524183164833 3.3018948402071793 -27.466153095194073 0 0 0
80 0 7 1.575 7.693197508633678 4.434358735551589 -28.72151749411247 0 0 0
18 0 7 1.575 6.595554362465588 1.3182972093762089 -27.58468189528159 0 0 0
77 0 7 1.575 6.61377142247982 7.609511924301026 -29.593727911762247 0 0 0
79 0 8 -1.05 6.728522782995763 7.702220776716887 -27.45009397854318 0 0 0
23 0 7 1.575 8.784261748159564 1.2876789987748234 -29.61603512024449 0 0 0
27 0 6 1.05 10.875408778958516 3.3857505700039257 -29.851599074381667 0 0 0
26 0 8 -1.05 10.714678319111252 1.3502437303138175 -29.55912521305616 0 0 0
90 0 8 -1.05 11.03913233345329 5.43336718086625 -29.480949185367823 0 0 0
24 0 8 -1.05 8.840309296773363 3.225036568627704 -29.596614658986823 0 0 0
30 0 7 1.575 11.944253024129637 0.21197162283123233 -28.693941401152127 0 0 0
88 0 7 1.575 10.833027362055976 5.491908835341375 -27.562444444586152 0 0 0
21 0 8 -1.05 8.645438078769814 1.1743887804712174 -27.44150342177958 0 0 0
29 0 8 -1.05 11.005625193929909 3.516789356166809 -27.29665284093925 0 0 0
84 0 8 -1.05 8.801626056183965 5.554348837935516 -27.482715002961655 0 0 0
81 0 8 -1.05 8.590832154741525 7.787132689372534 -29.454754860784043 0 0 0
87 0 8 -1.05 10.795123865224701 7.555856653837124 -27.46143172521472 0 0 0
83 0 7 1.575 8.782096996297605 7.563733707989229 -27.52278806282518 0 0 0
99 0 8 -1.05 15.165648423918812 7.709185072298201 -27.518890660053167 0 0 0
97 0 7 1.575 15.078890605035975 7.652580951780701 -29.661521279101837 0 0 0
93 0 7 1.575 12.987768131355947 5.525270581323938 -29.62447152630155 0 0 0
31 0 8 -1.05 12.896661849088574 3.5912925012651664 -29.517603154501202 0 0 0
33 0 7 1.575 12.993705397592592 3.3297838910810538 -27.618095081807933 0 0 0
34 0 8 -1.05 12.954859999067095 1.3536059342056497 -27.44537162576481 0 0 0
91 0 8 -1.05 12.88344027658676 5.432636144164938 -27.467610123067175 0 0 0
38 0 6 1.05 15.069336812288315 1.2931704084568378 -27.57264436179039 0 0 0
100 0 7 1.575 16.15848655632234 4.468774733634683 -28.677778841978586 0 0 0
37 0 8 -1.05 15.01012224426137 3.447420717230953 -27.377446788063786 0 0 0
40 0 8 -1.05 15.258456330747961 1.1249112040372389 -29.559923668262456 0 0 0
94 0 8 -1.05 13.107847968755657 7.49385493716919 -29.602368173059983 0 0 0
96 0 8 -1.05 14.955358804554375 5.673367412792823 -29.538494427448796 0 0 0
60 0 8 -1.05 23.754924104339228 1.0932151244719566 -29.571611167624454 0 0 0
116 0 8 -1.05 23.43460006140712 5.577336060797933 -29.504349939011377 0 0 0
120 0 7 1.575 24.63167336111157 4.415301317435828 -28.62879102495034 0 0 0
58 0 6 1.05 23.544212637414148 1.3043344705852056 -27.59992937362195 0 0 0
57 0 8 -1.05 23.592572466163954 3.3766940689715605 -27.296498325175445 0 0 0
117 0 6 1.05 23.603363100922277 7.578792167175566 -30.00496971284213 0 0 0
119 0 8 -1.05 23.77567975580942 7.731471861125974 -27.268943150804372 0 0 0
103 0 7 1.575 17.29157650760364 7.630188430542393 -27.700625235193055 0 0 0
107 0 8 -1.05 19.258732583712476 7.684717564744716 -27.48625393344033 0 0 0
101 0 8 -1.05 17.009167673977576 7.7852848106423 -29.587873328556864 0 0 0
114 0 8 -1.05 21.54566041390935 7.4441566818227445 -29.658867018488756 0 0 0
111 0 8 -1.05 21.399531875502184 5.43926044040995 -27.462409875345347 0 0 0
54 0 8 -1.05 21.458036678047282 1.2570145897613385 -27.307236935641573 0 0 0
104 0 8 -1.05 17.173823425238922 5.632810019923817 -27.39085243925473 0 0 0
49 0 8 -1.05 19.412865354292713 3.464558442083763 -27.465145352704504 0 0 0
41 0 8 -1.05 17.152358079688216 1.1980876246496994 -27.446106252143235 0 0 0
108 0 6 1.05 19.340679576554546 5.556905327695088 -27.587915039029088 0 0 0
53 0 6 1.05 21.524293583675373 3.3384021999159073 -27.646617024368535 0 0 0
50 0 7 1.575 20.41547535905827 0.20500623984676822 -28.63121627615729 0 0 0
51 0 8 -1.05 21.2912524864267 3.5333440315090807 -29.614153495991058 0 0 0
44 0 8 -1.05 17.355453973094182 3.248279090884194 -29.494993064602955 0 0 0
110 0 8 -1.05 19.476798497198608 5.348318271717581 -29.570345507174164 0 0 0
46 0 8 -1.05 19.19858166338991 1.4036966913643127 -29.46915645860188 0 0 0
47 0 7 1.575 19.342322370566524 3.388375170447347 -29.52737044500542 0 0 0
113 0 7 1.575 21.471153203287294 5.498767854001037 -29.552727847943956 0 0 0
43 0 7 1.575 17.224425337538733 1.268148473359422 -29.51715900860174 0 0 0
123 0 7 1.575 0.2985766114685522 9.747879549048662 -29.720423051153215 0 0 0
127 0 7 1.575 2.4257636389391566 11.856329517926776 -29.618684334355027 0 0 0
126 0 8 -1.05 2.3046224364959595 9.898491208784709 -29.621922488183 0 0 0
124 0 8 -1.05 0.46411169087702436 11.73461450573569 -29.651140901146853 0 0 0
131 0 8 -1.05 4.424471035550033 12.003970005099285 -29.468351895171153 0 0 0
130 0 7 1.575 3.3985707313181477 8.64406914788858 -28.71423246270047 0 0 0
133 0 7 1.575 4.532833399252007 11.817812787083565 -27.5289499979212 0 0 0
121 0 8 -1.05 0.22743518019424003 9.653025783184425 -27.62278896641578 0 0 0
129 0 8 -1.05 2.52511769745061 11.86990913164257 -27.52223822925035 0 0 0
134 0 8 -1.05 4.562561377764102 9.766109709431797 -27.475989752112056 0 0 0
140 0 8 -1.05 6.788642156784972 9.580268110264745 -29.447998271928306 0 0 0
137 0 8 -1.05 6.577661145932214 11.75865058419781 -27.43269363056069 0 0 0
138 0 7 1.575 6.573343751741542 9.748397338634588 -27.513876272790608 0 0 0
193 0 7 1.575 4.535632120389008 13.990595730383863 -29.550733745030175 0 0 0
190 0 8 -1.05 2.600864528728839 13.799360309126959 -29.61184623371558 0 0 0
188 0 6 1.05 2.3546874538795297 14.020173286298917 -27.627657835272352 0 0 0
184 0 8 -1.05 0.22484828739260893 14.06079014647976 -27.541753197137968 0 0 0
191 0 8 -1.05 4.490401958269774 13.843841988942296 -27.455261205996866 0 0 0
194 0 8 -1.05 4.6538626062786355 15.951184983475938 -29.51061909108099 0 0 0
181 0 8 -1.05 0.2226215202727796 16.34664697682951 -29.64287837795685 0 0 0
187 0 8 -1.05 2.2881588911022614 16.106225650352208 -27.480443096709582 0 0 0
183 0 7 1.575 0.30951965090827294 16.07562784162364 -27.75075396246664 0 0 0
196 0 8 -1.05 6.504746469268978 14.114274924658137 -29.530999294134766 0 0 0
200 0 7 1.575 7.672282897501968 12.931765905905191 -28.622023592772806 0 0 0
197 0 7 1.575 6.621753834237994 16.100248537854437 -29.57856043363476 0 0 0
199 0 8 -1.05 6.67925023763816 16.136457228860582 -27.47174098374992 0 0 0
143 0 7 1.575 8.75220917419172 9.754041067031983 -29.550622242526032 0 0 0
147 0 7 1.575 10.843945711549075 11.864189478119062 -29.502633732342975 0 0 0
146 0 8 -1.05 10.715682274364582 9.889165582614798 -29.462297807927023 0 0 0
144 0 8 -1.05 8.86985904966467 11.71764047827423 -29.474453773046967 0 0 0
150 0 7 1.575 11.936957419260358 8.658926693663727 -28.671670012699806 0 0 0
141 0 8 -1.05 8.64663721886315 9.631659370045329 -27.43067951326796 0 0 0
149 0 8 -1.05 10.88462941112112 11.95259207552995 -27.416693837751673 0 0 0
210 0 8 -1.05 10.941312568565044 13.844199788031753 -29.38109863287859 0 0 0
208 0 7 1.575 10.8240472318173 13.984393342048314 -27.446301416834736 0 0 0
204 0 8 -1.05 8.792630775236285 13.970322400289035 -27.320043906757366 0 0 0
201 0 8 -1.05 8.560238262999045 16.23640532963559 -29.740844044211276 0 0 0
203 0 6 1.05 8.836769282281796 16.072899213316354 -27.801560170199046 0 0 0
207 0 8 -1.05 10.860273396508516 15.974379130559006 -27.32999282812319 0 0 0
158 0 7 1.575 15.079457599293216 9.767016117521298 -27.58647926922201 0 0 0
157 0 8 -1.05 15.087470922175044 11.761715295635183 -27.432324517012685 0 0 0
160 0 8 -1.05 15.135214962615539 9.605858675324049 -29.500528856353966 0 0 0
151 0 8 -1.05 12.784086253029024 12.080718359561395 -29.5326273424806 0 0 0
153 0 6 1.05 13.021614068380925 11.8131658967679 -27.543090025079227 0 0 0
154 0 8 -1.05 13.038569584979452 9.689801498668396 -27.36858691943178 0 0 0
219 0 8 -1.05 15.039868264405381 16.242326648367047 -27.488634142483086 0 0 0
217 0 7 1.575 14.99651929227276 16.167450622330612 -29.538188903272484 0 0 0
220 0 7 1.575 16.018464926240995 12.860128323443476 -28.75794442566462 0 0 0
216 0 8 -1.05 14.871601259269974 14.186955985186714 -29.5165320947201 0 0 0
213 0 7 1.575 12.910434055405064 14.037061319052365 -29.515524741279688 0 0 0
211 0 8 -1.05 12.850873125582252 13.939086751959621 -27.400636587272963 0 0 0
214 0 8 -1.05 13.009745464806763 16.01475141337473 -29.50772350537163 0 0 0
180 0 8 -1.05 23.786371970188743 9.604582056722863 -29.602356593818083 0 0 0
178 0 7 1.575 23.64262795160049 9.648159689867141 -27.678107393013146 0 0 0
177 0 8 -1.05 23.568900533812457 11.69390136608372 -27.737376982696045 0 0 0
174 0 8 -1.05 21.613115106234755 9.756792315650937 -27.629123536817968 0 0 0
169 0 8 -1.05 19.80347908535883 11.814272610138376 -27.152378784200398 0 0 0
161 0 8 -1.05 17.02676581965747 9.571963521827053 -27.275062841876714 0 0 0
173 0 7 1.575 21.592042500088542 11.694456082638185 -28.1721329244096 0 0 0
170 0 7 1.575 20.39258546907903 8.667628174624522 -28.803828202122695 0 0 0
171 0 8 -1.05 21.314771063552342 11.995663459317573 -29.98576212014628 0 0 0
164 0 8 -1.05 17.286889817909515 11.908705080055435 -29.747355069500518 0 0 0
166 0 8 -1.05 19.176980733424013 9.993601860264732 -29.371677826283186 0 0 0
167 0 6 1.05 19.294478372152277 11.923767100649922 -30.22152588196279 0 0 0
163 0 6 1.05 17.2066181961197 9.85789220762146 -29.851370456590438 0 0 0
223 0 6 1.05 17.07580074888282 16.213742828089046 -27.54411448890979 0 0 0
227 0 8 -1.05 19.241450971689524 16.259174106009358 -27.729728952055478 0 0 0
236 0 8 -1.05 23.515319694596247 14.137279907499899 -29.79670733326768 0 0 0
240 0 7 1.575 24.64230079912236 12.93845507453317 -28.87920380247227 0 0 0
221 0 8 -1.05 16.997316137490866 16.28207585071431 -29.579281955479694 0 0 0
234 0 8 -1.05 21.646589106833158 15.969557529796914 -29.21491037558742 0 0 0
237 0 6 1.05 23.65636490352988 16.137438143074124 -30.014624109177586 0 0 0
239 0 8 -1.05 23.81801727839588 16.311753007443667 -27.357255574905345 0 0 0
231 0 8 -1.05 21.679575356506028 13.612357006437996 -27.351215492433205 0 0 0
224 0 8 -1.05 17.12902615830785 14.089263270723405 -27.60905379547124 0 0 0
228 0 6 1.05 18.366986115913917 14.879095550725983 -29.212070089525714 0 0 0
230 0 8 -1.05 19.545520819732303 13.96850784473897 -30.415926251444212 0 0 0
233 0 6 1.05 21.54371028817759 13.970870772199804 -30.292968651523744 0 0 0
301 0 8 -1.05 0.11978404842605314 24.7180549773604 -29.548157810004138 0 0 0
314 0 8 -1.05 4.697689326811094 24.481998789682788 -29.581841712438333 0 0 0
303 0 6 1.05 0.32555294139907764 24.54702965762643 -27.560266471767846 0 0 0
307 0 8 -1.05 2.4404162919525025 24.474423819975094 -27.434579953872504 0 0 0
243 0 7 1.575 0.3312603001052886 18.30159297452378 -29.68311949443298 0 0 0
313 0 7 1.575 4.550614744144445 22.496459374487245 -29.606650400908524 0 0 0
247 0 6 1.05 2.4361984781353656 20.38938827496658 -29.904311001924928 0 0 0
246 0 8 -1.05 2.280312921843607 18.362073807216753 -29.5865732583628 0 0 0
310 0 8 -1.05 2.603531468584193 22.41191876882783 -29.52169188898576 0 0 0
244 0 8 -1.05 0.38890838754770546 20.23829369190971 -29.583837373137627 0 0 0
251 0 8 -1.05 4.471309750206133 20.575735963249873 -29.715576091428122 0 0 0
250 0 7 1.575 3.445042921766203 17.180485117195172 -28.693432383588203 0 0 0
253 0 6 1.05 4.537435655307379 20.270726466559193 -27.76459858955048 0 0 0
308 0 7 1.575 2.3958044072710587 22.465631912672585 -27.617143436920415 0 0 0
241 0 8 -1.05 0.22347302448363127 18.160727845936876 -27.528184128217898 0 0 0
249 0 8 -1.05 2.5372801234439684 20.52012082502271 -27.26378416491598 0 0 0
304 0 8 -1.05 0.38125535429290625 22.429895430843715 -27.343762987183602 0 0 0
254 0 8 -1.05 4.551013730379456 18.171624922967695 -27.346679238576172 0 0 0
311 0 8 -1.05 4.449380365812236 22.43483228594479 -27.50184167830963 0 0 0
317 0 7 1.575 6.6508572781464546 24.58892564081241 -29.6130955522896 0 0 0
319 0 8 -1.05 6.735729906596894 24.703776162594757 -27.460828014478036 0 0 0
316 0 8 -1.05 6.529682839135109 22.647473530342342 -29.5055810255509 0 0 0
260 0 8 -1.05 6.730609726387196 18.040664023104046 -29.373114039625 0 0 0
258 0 7 1.575 6.573169655846931 18.211137795719694 -27.479000228580645 0 0 0
257 0 8 -1.05 6.66193266023776 20.210003744331953 -27.43689731094845 0 0 0
320 0 7 1.575 7.6745664121014725 21.36893349720922 -28.689205071119776 0 0 0
321 0 8 -1.05 8.610446462141132 24.756923318813826 -29.465082245067848 0 0 0
323 0 7 1.575 8.787772922927177 24.55486596556054 -27.5339624592554 0 0 0
327 0 8 -1.05 10.809145591026743 24.573359263303207 -27.436494071174376 0 0 0
263 0 6 1.05 8.688090270612866 18.277498863838847 -29.905982668379696 0 0 0
267 0 6 1.05 10.821397651393404 20.401880633796562 -29.62767062212522 0 0 0
266 0 8 -1.05 10.482943655237106 18.436851774097917 -28.654465220859958 0 0 0
330 0 8 -1.05 11.073396395855577 22.42309288286005 -29.37443760064542 0 0 0
324 0 8 -1.05 8.808791982336933 22.535289358375213 -27.47127254431655 0 0 0
264 0 8 -1.05 8.833643401056372 20.268412967262506 -29.68288667658702 0 0 0
269 0 8 -1.05 11.071521604105174 20.61879969488167 -27.112708277531954 0 0 0
261 0 8 -1.05 8.51456448324673 17.90277557087348 -26.768721252507724 0 0 0
328 0 7 1.575 10.851667073388537 22.55294721846638 -27.466605972683283 0 0 0
270 0 7 1.575 11.908493812575106 17.18647585189829 -28.498119577254673 0 0 0
278 0 6 1.05 15.042922774708973 18.357981709989062 -27.609967328718703 0 0 0
340 0 7 1.575 16.168370758777566 21.463931941760404 -28.61468001321981 0 0 0
277 0 8 -1.05 15.024267751740593 20.42761951094215 -27.365541696212073 0 0 0
280 0 8 -1.05 15.195833640894891 18.10797918581542 -29.595789154765583 0 0 0
336 0 8 -1.05 14.966359392413484 22.61645031140666 -29.51600433630843 0 0 0
334 0 8 -1.05 13.1433054860037 24.448402450741117 -29.53383702323331 0 0 0
339 0 8 -1.05 15.184620459331462 24.642702323499172 -27.458049481424652 0 0 0
337 0 7 1.575 15.116094475287895 24.603205469479548 -29.52860716875163 0 0 0
333 0 7 1.575 13.009854632646421 22.480480523335125 -29.550675296659414 0 0 0
331 0 8 -1.05 12.939779980335024 22.441896424123062 -27.35533881412464 0 0 0
274 0 8 -1.05 12.964759302854102 18.34902457206886 -27.27523971235558 0 0 0
271 0 8 -1.05 12.853195692106846 20.520412023800702 -29.370006839290863 0 0 0
273 0 7 1.575 13.034749856784446 20.38470916083118 -27.457431071919522 0 0 0
357 0 7 1.575 23.595200989932113 24.57584920006273 -29.505972096958985 0 0 0
359 0 8 -1.05 23.666590372355284 24.639926302781433 -27.441084600788283 0 0 0
351 0 8 -1.05 21.385509204837003 22.378805116568007 -27.45709631130676 0 0 0
294 0 8 -1.05 21.603173584253696 18.21653893078224 -27.50205031802168 0 0 0
344 0 8 -1.05 17.235431885784703 22.458258885073747 -27.291923364133957 0 0 0
289 0 8 -1.05 19.394755861066553 20.352305546246978 -27.51794839733011 0 0 0
281 0 8 -1.05 17.122387067318805 18.250116619438167 -27.497720142751433 0 0 0
348 0 6 1.05 19.30576246215835 22.51113512432739 -27.62836416991196 0 0 0
293 0 6 1.05 21.504329825568657 20.32183083959521 -27.58862386583304 0 0 0
290 0 7 1.575 20.460733095481068 17.41070107972897 -28.888856277297847 0 0 0
291 0 8 -1.05 21.263075924667362 20.46779998746499 -29.58333836826105 0 0 0
284 0 8 -1.05 17.314090993956494 20.266063890601387 -29.533000473690432 0 0 0
350 0 8 -1.05 19.504105978539584 22.335916477398737 -29.602697360341775 0 0 0
286 0 8 -1.05 19.121078865588217 18.421717558289075 -29.751663417965503 0 0 0
287 0 7 1.575 19.292127891836362 20.402879214878645 -29.591705394661496 0 0 0
353 0 7 1.575 21.467999505568184 22.45050550582528 -29.527717847031404 0 0 0
283 0 7 1.575 17.150734140069922 18.301826066279283 -29.58231362549681 0 0 0
300 0 8 -1.05 23.792074948945984 18.15517369332461 -29.571015448344085 0 0 0
356 0 8 -1.05 23.4434852328452 22.589667272918913 -29.47370499467653 0 0 0
360 0 7 1.575 24.706429049046438 21.43342991635278 -28.656465067680248 0 0 0
298 0 7 1.575 23.620844939485337 18.28491819066172 -27.65902142199067 0 0 0
297 0 8 -1.05 23.649226670719298 20.27444758260852 -27.375764146342902 0 0 0
347 0 8 -1.05 19.362273030906444 24.58131094415337 -27.305228891717373 0 0 0
343 0 6 1.05 17.29596669105719 24.543173970943762 -27.620529053835664 0 0 0
354 0 8 -1.05 21.614183400040947 24.433373456705016 -29.475323737125688 0 0 0
341 0 8 -1.05 17.06793328951245 24.747023887776425 -29.59157335310733 0 0 0
75 0 7 1.575 5.551023583946004 6.567649150423778 -26.442455593715184 0 0 0
5 0 7 1.575 1.3064634547961351 2.354093960540266 -26.4336732871156 0 0 0
66 0 8 -1.05 2.249284371376418 5.616906595685523 -25.19926459127903 0 0 0
15 0 8 -1.05 4.590546715345721 3.213585866184552 -25.24422592474062 0 0 0
405 0 7 1.575 1.2956262719203937 6.575201343198563 -22.228317627796375 0 0 0
371 0 7 1.575 5.5306383199493885 2.3263427107387096 -22.184363053688184 0 0 0
408 0 7 1.575 3.4436233870933406 4.41944449451387 -24.343062444383307 0 0 0
361 0 6 1.05 0.2274687325222226 1.2535799534010192 -21.15481378567488 0 0 0
409 0 6 1.05 4.472586871925409 5.489113510161723 -21.133090739914557 0 0 0
362 0 6 1.05 0.23962901486815907 3.3513610467129555 -23.237579060758065 0 0 0
367 0 7 1.575 2.3692350277821617 1.2509268340126996 -23.271635321236033 0 0 0
12 0 7 1.575 4.485160461583504 1.2412700248857238 -25.445528850875647 0 0 0
62 0 7 1.575 0.22727493219871706 5.507030321595218 -25.37370851843802 0 0 0
368 0 7 1.575 2.380884355508577 3.3887358841781214 -21.134638623810147 0 0 0
365 0 8 -1.05 2.329353361752191 1.3999480035133045 -21.008161070119257 0 0 0
406 0 8 -1.05 2.3319360654359493 5.424226400571762 -20.968988433758227 0 0 0
411 0 8 -1.05 4.59910484544349 5.473432167225935 -23.138350058407756 0 0 0
366 0 8 -1.05 2.3995740243631154 3.289842614706546 -23.07933242820488 0 0 0
369 0 8 -1.05 4.381582372999242 1.2078416158916065 -23.189277082678405 0 0 0
364 0 8 -1.05 0.4087493789410756 3.303287799489186 -20.926095903439734 0 0 0
370 0 8 -1.05 4.39215987845545 3.38954635803643 -20.984873602065434 0 0 0
8 0 8 -1.05 2.462012307380198 1.2836180311203298 -25.221153801879908 0 0 0
403 0 8 -1.05 0.17614772336185466 5.398747161580006 -23.166622295210104 0 0 0
2 0 8 -1.05 0.1894616192339076 3.4573848758195287 -25.2518096564232 0 0 0
363 0 8 -1.05 0.3713431654678068 1.2496725268186524 -23.15258067776646 0 0 0
618 0 7 1.575 3.4236747374990255 0.19455063757697114 -20.04096434657998 0 0 0
65 0 8 -1.05 0.39832661309398226 7.486462409091331 -25.057180622900248 0 0 0
412 0 8 -1.05 4.642934313486375 7.549341327735349 -20.91941404216452 0 0 0
69 0 7 1.575 2.35589914191006 7.606843395568363 -25.45522515928514 0 0 0
410 0 6 1.05 4.504708685346696 7.601868986687842 -23.268286760321864 0 0 0
72 0 8 -1.05 4.37519105609754 7.602759561357431 -25.277443113492485 0 0 0
404 0 8 -1.05 0.19351413533889866 7.734751396230375 -21.0437679693612 0 0 0
407 0 8 -1.05 2.455268246961227 7.77725664627648 -23.10680558991675 0 0 0
16 0 8 -1.05 6.50510667596745 1.3027455362382827 -25.386626485052968 0 0 0
413 0 8 -1.05 6.565137083917428 5.614961618124834 -21.023094073839488 0 0 0
374 0 7 1.575 7.676107435123409 0.19936015667737014 -24.36720082874388 0 0 0
415 0 7 1.575 6.602000897101001 5.480867504633406 -23.261337414337987 0 0 0
19 0 6 1.05 6.636673191858833 3.4140047167157492 -25.466954462176545 0 0 0
373 0 8 -1.05 6.75315607463053 3.4923878607693397 -23.050437702336833 0 0 0
78 0 8 -1.05 6.6307229856158925 5.513554403883391 -25.197360992121336 0 0 0
372 0 8 -1.05 6.593450353342441 1.2602552731735162 -20.91402010550468 0 0 0
668 0 7 1.575 7.67941208876561 4.416536339675057 -20.062960423809283 0 0 0
414 0 8 -1.05 6.652941284160436 7.5138361718216515 -23.07211423040469 0 0 0
416 0 7 1.575 6.617982060588616 7.617111424259168 -21.113679943129625 0 0 0
25 0 7 1.575 9.807532856132903 2.3183803410036803 -26.441870298956342 0 0 0
86 0 8 -1.05 10.78311695139989 5.5620925963456305 -25.380313263640158 0 0 0
419 0 7 1.575 9.816564127991319 6.524882187953035 -22.16674821880696 0 0 0
422 0 7 1.575 11.90063080124625 4.41543912524327 -24.366022576261035 0 0 0
375 0 6 1.05 8.700770639150717 1.2292666543237867 -21.145505599730146 0 0 0
376 0 7 1.575 8.749142158891644 3.3587099690581304 -23.229985475323108 0 0 0
381 0 7 1.575 10.853073002545269 1.2795632190507502 -23.207360069663817 0 0 0
82 0 6 1.05 8.720877934159622 5.457457792374458 -25.454610463965416 0 0 0
382 0 6 1.05 10.895810062740672 3.37393867849487 -21.110493506173626 0 0 0
379 0 8 -1.05 10.771008069049318 1.3255133800469432 -21.059839507918475 0 0 0
420 0 8 -1.05 10.959099199515165 5.505157085299437 -20.914026687210928 0 0 0
380 0 8 -1.05 10.783239198410401 3.3223268823219785 -23.140753148540885 0 0 0
378 0 8 -1.05 8.819415349129478 3.3081446910718655 -21.078723389309122 0 0 0
28 0 8 -1.05 10.874366737732277 1.2929315585653351 -25.152172404720357 0 0 0
417 0 8 -1.05 8.620543724086664 5.370262469722593 -23.08185189855525 0 0 0
22 0 8 -1.05 8.720816412537497 3.371760163634929 -25.176899926228753 0 0 0
377 0 8 -1.05 8.796192692415943 1.3162913797125788 -23.16231737471187 0 0 0
632 0 7 1.575 11.902398964502023 0.18385503961836255 -20.06670921566951 0 0 0
85 0 8 -1.05 8.79538156335576 7.556902062840406 -25.43347199029514 0 0 0
89 0 6 1.05 10.892621860117398 7.596848088853339 -25.414831047340975 0 0 0
418 0 8 -1.05 8.67379064447921 7.572633413170593 -20.92809682364079 0 0 0
421 0 8 -1.05 10.918592965317226 7.728596390668837 -23.11438494253678 0 0 0
430 0 7 1.575 15.109276557847437 7.601572475884509 -21.09933118714074 0 0 0
428 0 8 -1.05 15.098977393139329 7.631927457498968 -23.04891520211509 0 0 0
95 0 7 1.575 14.079083844468155 6.543564026356997 -26.478607358937985 0 0 0
35 0 8 -1.05 13.134714079394644 3.3547568448803067 -25.338429451490576 0 0 0
385 0 7 1.575 14.083760688748601 2.3425381759469395 -22.218792729570325 0 0 0
423 0 7 1.575 12.985818088034517 5.4682208993541614 -21.14775079669128 0 0 0
32 0 6 1.05 12.979551458212857 1.2559463737280554 -25.445602382586774 0 0 0
425 0 8 -1.05 12.950448579108093 5.487966749917046 -23.08220823532655 0 0 0
383 0 8 -1.05 12.853012238025945 1.1546003536834213 -23.039143693059835 0 0 0
384 0 8 -1.05 13.016829203525615 3.4740571259358264 -21.010110681603596 0 0 0
682 0 7 1.575 16.149444872535756 4.432953998480549 -19.994853614259885 0 0 0
386 0 8 -1.05 15.229672549454564 1.3021474550813537 -21.006523134308512 0 0 0
98 0 8 -1.05 15.191324265248275 5.435639369910039 -25.31618929277617 0 0 0
387 0 8 -1.05 15.191061965518697 3.4679060279014964 -23.250970540395244 0 0 0
39 0 7 1.575 15.130110501354796 3.3937449236465103 -25.411957487776252 0 0 0
429 0 6 1.05 15.09847848695101 5.529421433401969 -23.30658505667361 0 0 0
388 0 7 1.575 16.16924462719946 0.2053654318348965 -24.323067081270654 0 0 0
427 0 8 -1.05 14.981313449401675 5.598114334546376 -20.938271668223365 0 0 0
36 0 8 -1.05 15.04792011517753 1.4223837099184187 -25.23602029217775 0 0 0
426 0 8 -1.05 13.105524936711031 7.471196301168941 -20.952268215072653 0 0 0
424 0 6 1.05 13.000058892769506 7.569787544447112 -23.315762141516185 0 0 0
92 0 8 -1.05 12.9953121591676 7.680880710168147 -25.314653491192438 0 0 0
402 0 7 1.575 24.64026190305897 0.19284055981433193 -24.331532899300008 0 0 0
443 0 6 1.05 23.554732404309153 5.542976467319016 -23.22566233590565 0 0 0
59 0 7 1.575 23.58093887388656 3.4009540444091235 -25.35722535324598 0 0 0
401 0 8 -1.05 23.631474263505204 3.4736953347144675 -23.150367561924597 0 0 0
118 0 8 -1.05 23.642579722594853 5.432512519246997 -25.24736330350984 0 0 0
400 0 8 -1.05 23.55796322372992 1.1444843890561076 -21.010381884545176 0 0 0
56 0 8 -1.05 23.4555090237681 1.3995092224890002 -25.177593227375304 0 0 0
441 0 8 -1.05 23.529272468933854 5.715547432058633 -20.944120661816022 0 0 0
696 0 7 1.575 24.65417732101833 4.486021446085887 -20.068527841896845 0 0 0
444 0 7 1.575 23.573960040825742 7.714407692798994 -21.08992827543929 0 0 0
442 0 8 -1.05 23.49584552842861 7.711555015189662 -23.04117374021738 0 0 0
435 0 8 -1.05 19.50290913766832 7.769472590498183 -23.010957736894554 0 0 0
432 0 8 -1.05 17.135143486467577 7.649247868019521 -21.01402917365189 0 0 0
112 0 8 -1.05 21.495676763645477 7.6586244957654515 -25.20440338145727 0 0 0
438 0 7 1.575 21.492136956242767 7.707825210536357 -23.265348524628422 0 0 0
109 0 6 1.05 19.392636099134904 7.629468910085415 -25.494431276516064 0 0 0
440 0 8 -1.05 21.61421189476219 7.600527248554498 -20.91199961550865 0 0 0
105 0 8 -1.05 17.27719083857802 7.480175266510203 -25.281008607165283 0 0 0
646 0 7 1.575 20.41644264326546 0.2211182995053997 -20.03671905847229 0 0 0
391 0 8 -1.05 17.238803035197495 1.2799418594902237 -23.06078247006553 0 0 0
42 0 8 -1.05 17.161775588260614 3.46719552528239 -25.356211398798372 0 0 0
431 0 8 -1.05 17.160853326453985 5.432841685995168 -23.21170204301169 0 0 0
48 0 8 -1.05 19.41459459632333 1.186658955989698 -25.27158930072063 0 0 0
398 0 8 -1.05 21.374188175628834 3.3651129317311477 -20.923591442317797 0 0 0
392 0 8 -1.05 17.36496973604772 3.2590146786135112 -20.85863788188024 0 0 0
397 0 8 -1.05 21.384840725045873 1.1707275376529405 -23.179974553829187 0 0 0
394 0 8 -1.05 19.352386875752824 3.3999026224283124 -23.061293766213286 0 0 0
439 0 8 -1.05 21.453494098283354 5.6765304452602265 -23.11947185644244 0 0 0
434 0 8 -1.05 19.326700333884354 5.408428663481469 -20.965177045580386 0 0 0
393 0 8 -1.05 19.232798924156995 1.411360438548124 -20.924773708351896 0 0 0
396 0 7 1.575 19.349539430789452 3.419058533947319 -21.133318400359467 0 0 0
102 0 7 1.575 17.233127151238754 5.502815057615765 -25.426218839335164 0 0 0
52 0 7 1.575 21.45715842669293 1.2609846491426107 -25.36676260946457 0 0 0
395 0 6 1.05 19.33763062727561 1.288921171465825 -23.270700296764748 0 0 0
390 0 6 1.05 17.25999559569861 3.376998200253574 -23.348889561918945 0 0 0
437 0 6 1.05 21.451733423525155 5.537394191681298 -21.12666586274332 0 0 0
389 0 7 1.575 17.22707098839702 1.2723911015609928 -21.130212576153507 0 0 0
436 0 7 1.575 20.42608544388797 4.499057427639916 -24.31884450788807 0 0 0
399 0 7 1.575 22.502212372582076 2.317387670349727 -22.191411845663517 0 0 0
433 0 7 1.575 18.29878662766488 6.550029638565673 -22.202024241433193 0 0 0
55 0 8 -1.05 21.582682099060143 3.260546549938386 -25.162656203252176 0 0 0
106 0 8 -1.05 19.196539687116683 5.580964037140957 -25.257206777194863 0 0 0
45 0 7 1.575 18.321050886449708 2.3059738614503154 -26.459123377775118 0 0 0
115 0 7 1.575 22.552540252733753 6.550757665404461 -26.466464542935686 0 0 0
125 0 7 1.575 1.340085018245713 10.739265660466012 -26.55089472936971 0 0 0
135 0 8 -1.05 4.524887161921343 11.763100505112742 -25.422110675638915 0 0 0
455 0 7 1.575 5.534628402318429 10.78612233895909 -22.144785339945894 0 0 0
445 0 7 1.575 0.24488788629839434 9.725359522330765 -21.231631979565755 0 0 0
446 0 6 1.05 0.16772563536942361 11.818063147888386 -23.466747857147134 0 0 0
451 0 7 1.575 2.365802358992641 9.75659165333081 -23.314655713632746 0 0 0
132 0 6 1.05 4.470448203823868 9.691019613154342 -25.429054376924828 0 0 0
452 0 6 1.05 2.3039527572835174 11.903495021709722 -21.18270710255721 0 0 0
449 0 8 -1.05 2.1997606418627935 9.810247498759388 -21.106668559970277 0 0 0
450 0 8 -1.05 2.3207498691697053 11.7454119488048 -23.185489712483527 0 0 0
453 0 8 -1.05 4.34728285406163 9.688462883907563 -23.12024782426009 0 0 0
448 0 8 -1.05 0.17780551091026378 11.656812267120802 -20.69733055513328 0 0 0
454 0 8 -1.05 4.461028761138609 11.908613626801536 -20.92935042870755 0 0 0
128 0 8 -1.05 2.3467176035241613 9.629840357853341 -25.258289091128862 0 0 0
122 0 8 -1.05 0.2766940962353595 11.925913748629078 -25.44243436454369 0 0 0