LAMMPS data file via write_data, version 17 Feb 2022, timestep = 105

2925 atoms
10 atom types
36 bonds
6 bond types
54 angles
6 angle types
0 dihedrals
2 dihedral types
9 impropers
2 improper types

0 25.44 xlo xhi
0 25.44 ylo yhi
-41.458422 32.908 zlo zhi

Masses

1 12.011
2 1.008
3 15.9994
4 15.9994
5 1.008
6 55.845
7 55.845
8 15.9994
9 15.9994
10 1.008

Pair Coeffs # lj/cut/coul/long

1 0.0988 3.31521
2 0.0161 2.4473
3 0.1463 3.04812
4 0.093 3.24287
5 0.0047 0.537925
6 9.0298e-07 4.9062
7 9.0298e-07 4.9062
8 0.1554 3.16554
9 0.1554 3.16554
10 0 0

Bond Coeffs # harmonic

1 361.8 1.105
2 652.57 1.218
3 383.13 1.351
4 563.51 0.973
5 554.135 1
6 0 2.08

Angle Coeffs # harmonic

1 51.617 106.55
2 65.93 123.65
3 65.262 109.49
4 115.745 122.1
5 118.817 130.25
6 30 109.47

Dihedral Coeffs # fourier

1 1 2.3 2 180
2 2 2.3 2 180 1.9 1 0

Improper Coeffs # cvff

1 10.5 -1 2
2 10.5 -1 2

Atoms # full

9 0 7 1.575 2.395188156608559 3.358541555967904 -29.503961042563326 0 0 0
79 0 7 1.575 6.626587681972348 7.602877495932105 -29.556624543326986 0 0 0
2 0 7 1.575 0.2805316370640032 1.2515056517789345 -29.487430829676637 0 0 0
72 0 7 1.575 4.513992562616415 5.483710642028768 -29.53051293616204 0 0 0
12 0 8 -1.05 4.378340577491287 3.5058805214306856 -29.530257520775713 0 0 0
75 0 8 -1.05 4.676942598458661 7.446823948912931 -29.58372894584956 0 0 0
6 0 8 -1.05 2.244847935157049 1.3920563979736353 -29.537496266152345 0 0 0
68 0 8 -1.05 2.540861714447032 5.3402021608698425 -29.4499833832222 0 0 0
76 0 8 -1.05 6.489530176067034 5.639757988853734 -29.599217448472086 0 0 0
5 0 8 -1.05 0.4386786210565797 3.2078461054177247 -29.561958068740935 0 0 0
18 0 8 -1.05 6.820998674631547 1.1487194237504579 -29.58340230118991 0 0 0
62 0 8 -1.05 0.12100013383526431 7.697654939364644 -29.505167177297228 0 0 0
15 0 7 1.575 5.560988680832432 2.2757646441167623 -28.709865285155114 0 0 0
65 0 7 1.575 1.3107875309650412 6.53335936711589 -28.624265553280278 0 0 0
78 0 6 1.05 6.677175890817384 5.467718939726204 -27.613780642167573 0 0 0
3 0 6 1.05 0.22633976661978988 3.427648120576512 -27.591026854292686 0 0 0
73 0 6 1.05 4.466732701459584 7.628344730113171 -27.609365476236643 0 0 0
8 0 6 1.05 2.451827590723093 1.2272013918581794 -27.550479778990727 0 0 0
7 0 8 -1.05 2.3428817360359653 3.302427439958079 -27.429631020456934 0 0 0
74 0 8 -1.05 4.611325521188926 5.540760400849413 -27.448675915125065 0 0 0
69 0 8 -1.05 2.3987022640225693 7.5831330100305046 -27.312038149040486 0 0 0
4 0 8 -1.05 0.3555606323783 1.320940535235896 -27.422047347534864 0 0 0
19 0 8 -1.05 6.713079273679803 3.3256332033240654 -27.40627746961211 0 0 0
77 0 8 -1.05 6.5907318527473215 7.553278189720625 -27.498984782059118 0 0 0
11 0 8 -1.05 4.563672522358476 1.155848573412795 -27.434614192067684 0 0 0
61 0 8 -1.05 0.2771106156084862 5.502381263950767 -27.28174856207283 0 0 0
82 0 8 -1.05 8.621481109206705 7.774353879412026 -29.558377429669147 0 0 0
29 0 7 1.575 10.902769312066894 3.4003727079742188 -29.62851035452724 0 0 0
22 0 7 1.575 8.774371941205542 1.2534838693752985 -29.62336547567006 0 0 0
26 0 8 -1.05 10.73259026802072 1.4295730962272135 -29.482334919787114 0 0 0
88 0 8 -1.05 10.956730211901565 5.338629032570524 -29.60536572322002 0 0 0
25 0 8 -1.05 8.926203565993024 3.2199521116259184 -29.5123462985216 0 0 0
81 0 8 -1.05 8.791117318123868 5.413025250055816 -27.474620308906072 0 0 0
85 0 7 1.575 9.810695875316837 6.547627327214997 -28.728929188972224 0 0 0
23 0 7 1.575 8.716855676826633 3.4285669690247094 -27.59600610112608 0 0 0
28 0 7 1.575 10.911926863574914 1.2248914889580194 -27.553669166010373 0 0 0
27 0 8 -1.05 10.766621286849954 3.285711398301539 -27.454937709238813 0 0 0
89 0 8 -1.05 10.920194511279812 7.665149638451321 -27.48714916641662 0 0 0
24 0 8 -1.05 8.859289582079125 1.3759183602889693 -27.471200631460015 0 0 0
99 0 7 1.575 15.109764987806674 7.649334910108473 -29.62853342733797 0 0 0
92 0 6 1.05 12.99424848280327 5.5047793645537375 -29.85232854129015 0 0 0
32 0 8 -1.05 12.834337163445817 3.467261009138209 -29.569371243000663 0 0 0
95 0 8 -1.05 13.161509169850152 7.556729283876271 -29.485218573110043 0 0 0
96 0 8 -1.05 15.018146970534698 5.715843580140812 -29.52767134676537 0 0 0
38 0 8 -1.05 15.26565118498746 1.1202848735052358 -29.54721755774878 0 0 0
35 0 7 1.575 14.065005566995763 2.3236501534692158 -28.710495221355387 0 0 0
98 0 7 1.575 15.114512400001907 5.4477110423328465 -27.6298072596173 0 0 0
93 0 7 1.575 12.953411902085092 7.605912204007425 -27.567680553797878 0 0 0
94 0 8 -1.05 13.123833661116082 5.629969459248681 -27.312470770161497 0 0 0
39 0 8 -1.05 15.074532722901365 3.470628237061477 -27.459242864167745 0 0 0
97 0 8 -1.05 15.004161883887875 7.548850800008304 -27.469922597735206 0 0 0
31 0 8 -1.05 12.931731872215588 1.2473797349357327 -27.449274442782123 0 0 0
51 0 8 -1.05 21.485914154656776 1.2652778533259987 -27.29049740516263 0 0 0
117 0 8 -1.05 23.52515072331655 7.569752421631818 -27.457758049645964 0 0 0
59 0 8 -1.05 23.580456190247556 3.381605414596453 -27.300383166961616 0 0 0
44 0 8 -1.05 17.301279459905572 1.3197075395015847 -27.46087686633347 0 0 0
109 0 8 -1.05 19.300199093127326 7.75029406083194 -27.391739673015778 0 0 0
114 0 8 -1.05 21.539792318053937 5.58745071515077 -27.463474785344562 0 0 0
47 0 8 -1.05 19.27427910830095 3.317235045943761 -27.440045979745957 0 0 0
48 0 6 1.05 19.417743961513402 1.2266735280346268 -27.613735302473053 0 0 0
113 0 6 1.05 21.466534390928057 7.674670172757945 -27.591837413182958 0 0 0
43 0 6 1.05 17.190980991054193 3.409141577225479 -27.57344722105146 0 0 0
118 0 6 1.05 23.64859088517562 5.4666107860728435 -27.63908002780023 0 0 0
105 0 7 1.575 18.280391493233687 6.590111684706612 -28.68080977214294 0 0 0
55 0 7 1.575 22.538028527678566 2.3258165911209576 -28.621510748927427 0 0 0
101 0 8 -1.05 17.130803584888803 5.5675964259738295 -27.383081728995897 0 0 0
58 0 8 -1.05 23.739366069084173 1.1095508607049238 -29.45232352844158 0 0 0
45 0 8 -1.05 17.384360567169967 3.2406172972751146 -29.560599186094077 0 0 0
116 0 8 -1.05 23.41937876661395 5.654696558353725 -29.607857674514058 0 0 0
108 0 8 -1.05 19.479699754766298 5.3677082857770815 -29.492242960421418 0 0 0
46 0 8 -1.05 19.19467143867738 1.425629413433501 -29.584901498724015 0 0 0
115 0 8 -1.05 21.603606641844678 7.466208041234224 -29.57427547352222 0 0 0
52 0 8 -1.05 21.322325334752378 3.523686907643928 -29.459748203357464 0 0 0
112 0 7 1.575 21.468833753301038 5.507791764595335 -29.52511520820022 0 0 0
42 0 7 1.575 17.240668901347565 1.2780941221331232 -29.53064743523077 0 0 0
119 0 7 1.575 23.59734748667193 7.621982707853492 -29.552619148252706 0 0 0
49 0 7 1.575 19.348448150547124 3.3875775778816175 -29.513936558442296 0 0 0
102 0 8 -1.05 17.078575803220275 7.796723343694713 -29.540914759402384 0 0 0
138 0 8 -1.05 6.784812815634526 9.603134928563986 -29.53116618830768 0 0 0
129 0 7 1.575 2.4188516635433235 11.864626637170044 -29.706318664288176 0 0 0
122 0 6 1.05 0.2876097833596325 9.697425434343858 -30.003666488184933 0 0 0
132 0 8 -1.05 4.426792627557456 12.016335302626107 -29.61807910833375 0 0 0
126 0 8 -1.05 2.3539501046833236 9.93731640220381 -29.848453173526934 0 0 0
125 0 8 -1.05 0.4664632602318375 11.721116588555093 -29.58119642235879 0 0 0
131 0 8 -1.05 4.4931165433890525 9.731928773826386 -27.384537177575506 0 0 0
135 0 7 1.575 5.520322329890865 10.762943486920943 -28.713227706297108 0 0 0
123 0 7 1.575 0.3299930760388311 11.75859392629533 -27.65620431955401 0 0 0
128 0 6 1.05 2.407761814541269 9.576875492070247 -27.913049028132075 0 0 0
127 0 8 -1.05 2.356029522928386 11.762024885378967 -27.618922039999042 0 0 0
124 0 8 -1.05 0.45881675247173304 9.838696026628433 -27.257242668275556 0 0 0
139 0 8 -1.05 6.687320118812588 11.88639072813869 -27.47652366858444 0 0 0
199 0 7 1.575 6.658059860884369 16.107206376686662 -29.547608180680328 0 0 0
192 0 7 1.575 4.544604815358574 13.97517467140924 -29.61890835288463 0 0 0
195 0 8 -1.05 4.722593282281989 15.917187272620678 -29.610560910266535 0 0 0
188 0 8 -1.05 2.583142336046429 13.84881913861861 -29.633314375529377 0 0 0
196 0 8 -1.05 6.543213711180709 14.121399704476621 -29.471152190595845 0 0 0
182 0 8 -1.05 0.19105224490847353 16.258375229839064 -29.739918367971498 0 0 0
185 0 7 1.575 1.3180301918205968 15.04085041202312 -28.84632828797051 0 0 0
198 0 7 1.575 6.6553464249189265 13.933817602485126 -27.532863300037814 0 0 0
193 0 6 1.05 4.4700764370920165 16.131473485914462 -27.62607614270105 0 0 0
194 0 8 -1.05 4.648166231428198 13.985620803422949 -27.51887622349774 0 0 0
189 0 8 -1.05 2.342076335976642 16.17160124005582 -27.523095002813935 0 0 0
197 0 8 -1.05 6.606906103028017 15.957290407006708 -27.451507866714177 0 0 0
181 0 8 -1.05 0.2568711089619779 13.802406152856769 -27.695234236006023 0 0 0
149 0 7 1.575 10.879984194483841 11.869527348438526 -29.543143254844576 0 0 0
142 0 7 1.575 8.736859452526426 9.727309749081442 -29.59494121331712 0 0 0
146 0 8 -1.05 10.71503985804667 9.90201623379424 -29.448460285609222 0 0 0
145 0 8 -1.05 8.91703279162814 11.697542494810646 -29.44511760212421 0 0 0
143 0 7 1.575 8.698924829385719 11.870463503772356 -27.51321198933065 0 0 0
148 0 7 1.575 10.90024758459375 9.675694493042663 -27.51814694495588 0 0 0
147 0 8 -1.05 10.771995001959253 11.743459759166305 -27.420300424116785 0 0 0
144 0 8 -1.05 8.847417341403121 9.821542232956471 -27.4467834319006 0 0 0
202 0 8 -1.05 8.627955638911986 16.23075103842142 -29.518576600433697 0 0 0
208 0 8 -1.05 10.997798501779167 13.832789515982254 -29.458495787805294 0 0 0
201 0 8 -1.05 8.705433341690348 13.882775529418819 -27.427885684516717 0 0 0
205 0 7 1.575 9.809585152905349 15.059590130832373 -28.612157030953284 0 0 0
209 0 8 -1.05 10.927888277696084 16.091356374201442 -27.30285764991981 0 0 0
158 0 8 -1.05 15.230998256818655 9.618956975136697 -29.596942431363534 0 0 0
152 0 8 -1.05 12.842241461919512 12.004972201443179 -29.44724808822182 0 0 0
151 0 8 -1.05 12.913520181511192 9.666567245761277 -27.45398773252791 0 0 0
155 0 7 1.575 14.059740570769216 10.77405965936604 -28.657050078835628 0 0 0
159 0 8 -1.05 15.161270691474096 11.799844044777506 -27.35087949148951 0 0 0
219 0 7 1.575 15.02987530791364 16.162676038379537 -29.491103729925307 0 0 0
212 0 7 1.575 12.97256463137924 13.978559740240225 -29.480221479397386 0 0 0
215 0 8 -1.05 13.066651494957682 15.955071362998995 -29.359312587832655 0 0 0
216 0 8 -1.05 14.912994914000473 14.198827989718389 -29.510694533132103 0 0 0
218 0 6 1.05 15.143827977499384 13.919452451979794 -27.522373983799056 0 0 0
213 0 7 1.575 12.962216502503784 16.095416184695306 -27.424889770815877 0 0 0
214 0 8 -1.05 13.005943986261022 14.065321720988203 -27.396538539066135 0 0 0
217 0 8 -1.05 14.986539897477638 16.043836179398017 -27.380202994091565 0 0 0
179 0 8 -1.05 23.742629610869926 11.867738365777136 -27.60377802452648 0 0 0
164 0 8 -1.05 17.294793974183154 9.822078950926224 -27.508226330686814 0 0 0
167 0 8 -1.05 19.158145427070526 11.681615584871475 -27.271375849763412 0 0 0
168 0 7 1.575 19.41869311158582 9.744976057980987 -27.707161262832457 0 0 0
163 0 7 1.575 17.207784574603266 11.879770433783836 -27.565725033286306 0 0 0
175 0 7 1.575 22.529130757805678 10.791177195790164 -28.796524225223713 0 0 0
171 0 8 -1.05 21.38555862936479 9.79999546213828 -27.489337046405637 0 0 0
165 0 8 -1.05 17.259353326515903 11.728570126750649 -29.479955410477018 0 0 0
166 0 8 -1.05 19.131569181753147 9.909465318860667 -29.591185613845187 0 0 0
172 0 8 -1.05 21.31623429647879 12.11695833303067 -29.36945586376733 0 0 0
162 0 7 1.575 17.201414630138487 9.778161538009428 -29.66002395526546 0 0 0
169 0 6 1.05 19.342227912298565 11.985367248546778 -29.82752783335305 0 0 0
178 0 8 -1.05 23.67169139178381 9.566335521171608 -29.661501500956273 0 0 0
237 0 8 -1.05 23.824979829539764 15.711860916645216 -27.25125569456945 0 0 0
229 0 8 -1.05 19.229017525842114 16.205753013269526 -27.5765801236626 0 0 0
234 0 8 -1.05 21.93938788424676 13.916542340538024 -27.104254947009647 0 0 0
233 0 6 1.05 20.466918439108213 16.97355914292502 -29.176500786604972 0 0 0
238 0 7 1.575 23.717983501710012 13.813988154910371 -28.117935616512092 0 0 0
225 0 7 1.575 18.11761531262984 14.987189004028389 -28.73123610022302 0 0 0
221 0 8 -1.05 17.205143761027852 13.870768369598359 -27.407662660006242 0 0 0
236 0 8 -1.05 23.439997133848678 14.14226963271261 -29.927844750969378 0 0 0
228 0 8 -1.05 19.41644174122532 14.032336642095968 -29.68237178275922 0 0 0
235 0 8 -1.05 21.65578885176897 16.097959587017087 -30.393981621056604 0 0 0
232 0 6 1.05 21.422916577968603 14.054083149155145 -30.185971233835737 0 0 0
239 0 6 1.05 23.654387050713634 16.11745645627815 -30.26454780036428 0 0 0
222 0 8 -1.05 16.986212683332504 16.319443182790348 -29.506068899783283 0 0 0
258 0 8 -1.05 6.779853858069146 18.06845426695521 -29.483384126315734 0 0 0
249 0 7 1.575 2.440884088826413 20.411235958404756 -29.647668335201562 0 0 0
319 0 7 1.575 6.671809170270571 24.60263811423424 -29.599258463389415 0 0 0
242 0 6 1.05 0.32434679024707874 18.25463119128347 -29.971293011261388 0 0 0
312 0 6 1.05 4.553758561250488 22.494833520044764 -29.858115826414434 0 0 0
252 0 8 -1.05 4.390855423175276 20.467112277961593 -29.551157008697185 0 0 0
315 0 8 -1.05 4.724120978164093 24.522130872287942 -29.5115678799295 0 0 0
246 0 8 -1.05 2.332663395617963 18.458425726594086 -29.621414045638517 0 0 0
308 0 8 -1.05 2.5067205626135753 22.347125361499394 -29.53036631654008 0 0 0
316 0 8 -1.05 6.589712620881725 22.680671886464097 -29.69311335664622 0 0 0
245 0 8 -1.05 0.46104645615362255 20.26226204328743 -29.52836923984059 0 0 0
302 0 8 -1.05 0.12677314185095043 24.70540488604865 -29.44640196733325 0 0 0
251 0 8 -1.05 4.39727156158534 18.21527204183899 -27.462342333417173 0 0 0
255 0 7 1.575 5.564893177388012 19.289957717185434 -28.66561473259479 0 0 0
305 0 7 1.575 1.3768224753800709 23.546119693884137 -28.619787181130768 0 0 0
318 0 6 1.05 6.667583080407397 22.387951863228576 -27.740306340908113 0 0 0
243 0 7 1.575 0.28999136123400204 20.39116973355396 -27.616530555301626 0 0 0
313 0 7 1.575 4.514866481160747 24.585413799806048 -27.607798600633142 0 0 0
248 0 7 1.575 2.4184805743549 18.184625467831538 -27.73108848074512 0 0 0
247 0 8 -1.05 2.330828715051257 20.26350380094455 -27.49607430196005 0 0 0
314 0 8 -1.05 4.654880725594912 22.6402513589031 -27.25309061160634 0 0 0
309 0 8 -1.05 2.5015338539193914 24.555124678309664 -27.324213357096852 0 0 0
244 0 8 -1.05 0.4902112019074454 18.41556591288725 -27.322925451077946 0 0 0
259 0 8 -1.05 6.676760147942468 20.29029984260102 -27.332139468760342 0 0 0
317 0 8 -1.05 6.5716446245145 24.5510750645456 -27.496895604519903 0 0 0
301 0 8 -1.05 0.32268055739965706 22.384458047726604 -27.34458795082058 0 0 0
322 0 8 -1.05 8.653099032390408 24.749246952501572 -29.509147937977502 0 0 0
269 0 6 1.05 10.811792673967739 20.385875425279714 -29.90825179271537 0 0 0
262 0 7 1.575 8.750215471103905 18.218278704585895 -29.548837745189257 0 0 0
264 0 8 -1.05 8.811246305233102 18.245830221531122 -27.440183452344687 0 0 0
266 0 8 -1.05 10.685287789073818 18.34299444691605 -29.731632284393307 0 0 0
329 0 8 -1.05 10.93441626978136 24.647293389603202 -27.489726665687375 0 0 0
328 0 8 -1.05 10.958720870029172 22.375960202374042 -29.719072683945434 0 0 0
267 0 8 -1.05 10.634887952513388 19.957566778300183 -26.619705183482804 0 0 0
268 0 6 1.05 10.992375463244935 18.22470937253174 -27.789649678756714 0 0 0
265 0 8 -1.05 8.876528765027594 20.15522881704696 -29.32068807804317 0 0 0
263 0 7 1.575 8.71196765531111 20.315960976286544 -27.425923683428223 0 0 0
321 0 8 -1.05 8.815866648816423 22.31216955423139 -27.420693625517497 0 0 0
325 0 7 1.575 9.804574431985472 23.466717184585836 -28.70570161057643 0 0 0
278 0 8 -1.05 15.115979197481717 18.145772939347918 -29.467987357878563 0 0 0
339 0 7 1.575 15.131242732018363 24.58685089564697 -29.559817607252864 0 0 0
332 0 6 1.05 12.932076905859192 22.508911623817834 -29.555407964020112 0 0 0
337 0 8 -1.05 15.05668091279161 24.553411751238713 -27.352943570483866 0 0 0
272 0 8 -1.05 12.522772041095383 20.52250905061692 -28.56045526706464 0 0 0
335 0 8 -1.05 13.197073841980444 24.537060619946732 -29.374262105841026 0 0 0
279 0 8 -1.05 15.093060445886834 20.472345822389492 -27.26986562852588 0 0 0
336 0 8 -1.05 14.966832759159969 22.626526596782536 -29.363104659600758 0 0 0
334 0 8 -1.05 13.175526270630412 22.72113744327035 -27.131804140850345 0 0 0
333 0 7 1.575 12.977438887120918 24.66531372610439 -27.466613615043027 0 0 0
271 0 8 -1.05 13.003656487373311 18.072454217406303 -27.303559339938168 0 0 0
275 0 7 1.575 14.005196752912823 19.324782074367995 -28.46191973544157 0 0 0
338 0 7 1.575 15.149804976834163 22.49954426674693 -27.44972478945924 0 0 0
357 0 8 -1.05 23.50897547016894 24.498072457444355 -27.42935758874946 0 0 0
299 0 8 -1.05 23.716678901859673 20.33103986654002 -27.470270241587105 0 0 0
284 0 8 -1.05 17.157284196525268 18.367288823930792 -27.46706093444228 0 0 0
349 0 8 -1.05 19.355056933780478 24.583702975220305 -27.284820114438787 0 0 0
354 0 8 -1.05 21.516729132820362 22.47291163411713 -27.50170952834736 0 0 0
287 0 8 -1.05 19.239216501582725 20.37246689969023 -27.48379008093101 0 0 0
288 0 6 1.05 19.196945523947505 18.334433225595852 -27.512496912248437 0 0 0
353 0 6 1.05 21.42676816189036 24.632129436033775 -27.61021571703315 0 0 0
283 0 6 1.05 17.163748333598587 20.48083721296241 -27.59417940595183 0 0 0
358 0 6 1.05 23.62278031802833 22.438703780670206 -27.567662056938893 0 0 0
345 0 7 1.575 18.288338317651537 23.58537860276287 -28.603986528151946 0 0 0
295 0 7 1.575 22.56638911540281 19.521514308568005 -28.848466237544784 0 0 0
291 0 8 -1.05 21.36215199829512 18.367420549375 -27.683349870917574 0 0 0
341 0 8 -1.05 17.14184436424608 22.54979645649844 -27.362894736702252 0 0 0
285 0 8 -1.05 17.318393584569268 20.234218728966454 -29.58613335652239 0 0 0
356 0 8 -1.05 23.388794472599745 22.586767736711405 -29.562716653270353 0 0 0
348 0 8 -1.05 19.43752618648054 22.388467810112424 -29.51424403473551 0 0 0
286 0 8 -1.05 19.115904884407065 18.39918724609435 -29.545505948879743 0 0 0
355 0 8 -1.05 21.632241492318585 24.45591913463303 -29.58508671761925 0 0 0
292 0 8 -1.05 21.240336775075185 20.54015813235874 -29.72596440479741 0 0 0
352 0 7 1.575 21.414708457091525 22.522935558928022 -29.575455351273785 0 0 0
282 0 7 1.575 17.10675854260474 18.29927374739519 -29.50946879562114 0 0 0
359 0 7 1.575 23.59266207105868 24.568202474318127 -29.500997748709295 0 0 0
289 0 7 1.575 19.26940121382963 20.420558441308184 -29.56375338982868 0 0 0
298 0 8 -1.05 23.74698152894119 18.07224268564741 -29.171571491396726 0 0 0
342 0 8 -1.05 17.089211125774526 24.729688475925126 -29.51846544169784 0 0 0
70 0 7 1.575 3.425970986099454 4.476084344101705 -26.429705408162718 0 0 0
71 0 8 -1.05 4.372632440839646 7.731014301872112 -25.197771927089413 0 0 0
80 0 8 -1.05 6.7094654685501816 5.330575977942419 -25.240251563381307 0 0 0
364 0 7 1.575 1.321758318362025 2.3238860821547234 -24.31148856067027 0 0 0
416 0 7 1.575 7.6435313342493645 4.447947065117699 -22.17339542623553 0 0 0
412 0 7 1.575 5.559189720760712 6.5296842294063335 -24.336887505154007 0 0 0
13 0 6 1.05 4.512737511811696 1.2784377542553604 -25.441530241246795 0 0 0
366 0 6 1.05 2.3498582410827673 3.3852894616282496 -21.129319414914782 0 0 0
414 0 6 1.05 6.585865351260191 7.606332622744212 -21.12642172397426 0 0 0
407 0 6 1.05 2.3587385859943897 5.474510486435686 -23.221811912097735 0 0 0
404 0 6 1.05 0.24596894885138218 7.658927721540973 -23.198613989792566 0 0 0
63 0 7 1.575 0.2640530347692297 5.523274261840948 -25.34166452815289 0 0 0
370 0 7 1.575 4.488968664583378 3.3742902285594054 -23.265793681550136 0 0 0
373 0 6 1.05 6.636992989249931 1.243841337274676 -23.266185315194605 0 0 0
362 0 7 1.575 0.2736211409533793 1.2721273693441104 -21.113328402794963 0 0 0
17 0 7 1.575 6.6042603952735295 3.360024429844054 -25.451111476607537 0 0 0
67 0 7 1.575 2.3512421108985206 7.624630852325996 -25.365622388321928 0 0 0
410 0 7 1.575 4.497685186672192 5.5149933118993815 -21.117413655890402 0 0 0
16 0 8 -1.05 6.628235636688052 1.3667275786313628 -25.269229179895945 0 0 0
369 0 8 -1.05 4.4472762155026535 3.5307108802534573 -20.978703671863652 0 0 0
411 0 8 -1.05 4.4535724062511095 7.547034895605062 -20.943600336065696 0 0 0
405 0 8 -1.05 0.31231564755793506 5.5874795712859076 -23.14306827134952 0 0 0
415 0 8 -1.05 6.715688293926355 7.581335327539518 -23.132593636975667 0 0 0
64 0 8 -1.05 0.3298380193162486 7.553691143866299 -25.223710440514854 0 0 0
409 0 8 -1.05 4.518209485227111 5.408598949776657 -23.062739219530805 0 0 0
365 0 8 -1.05 2.302654219406734 1.2403794029162547 -20.892475943530886 0 0 0
372 0 8 -1.05 6.499905593827321 3.330119827494474 -23.184138964040628 0 0 0
408 0 8 -1.05 2.5274658132852896 5.435645934612378 -20.88775433768788 0 0 0
413 0 8 -1.05 6.5095910509153 5.510549376855216 -20.968964030954385 0 0 0
14 0 8 -1.05 4.581450414207834 3.405695165988447 -25.2146648926657 0 0 0
406 0 8 -1.05 2.307105723692278 7.516722942481528 -23.15069396584132 0 0 0
371 0 8 -1.05 4.593828200175089 1.4289680261107647 -22.96415054268437 0 0 0
363 0 8 -1.05 0.2405237012773372 3.275763702603842 -20.978963447590456 0 0 0
66 0 8 -1.05 2.3145156266405915 5.575116902084133 -25.238047945617886 0 0 0
367 0 8 -1.05 2.4938603093053096 3.3770321701932864 -23.12826286561634 0 0 0
10 0 8 -1.05 2.4565962917898765 1.1074846717021418 -25.195163083043138 0 0 0
374 0 8 -1.05 6.702554060789122 1.0902546715349355 -20.88217803185691 0 0 0
1 0 8 -1.05 0.13760011070252925 3.5220297596263808 -25.170752947330172 0 0 0
403 0 8 -1.05 0.21240436358886164 7.809660751937008 -20.934699480253016 0 0 0
361 0 8 -1.05 0.2766925612441352 1.2448549867211518 -23.03910061689785 0 0 0
622 0 7 1.575 5.549991351717148 2.31643841203199 -20.034116480986466 0 0 0
658 0 7 1.575 1.3380587133942412 6.613622898993399 -20.015977386516163 0 0 0
20 0 7 1.575 7.69352360353209 0.23226678004396079 -26.4627169391526 0 0 0
368 0 7 1.575 3.408568241552071 0.1873950760189275 -22.18398823172604 0 0 0
21 0 8 -1.05 8.623486509713459 3.4160536763864418 -25.39695197225602 0 0 0
417 0 8 -1.05 8.67809941377403 7.723076326256586 -21.022663854928137 0 0 0
375 0 8 -1.05 8.775994408830663 1.1736994325084416 -23.157362322757766 0 0 0
90 0 7 1.575 11.928439368782096 4.429161405873467 -26.455856846441353 0 0 0
378 0 7 1.575 9.800141806923456 2.314405723212293 -24.38383893251488 0 0 0
380 0 6 1.05 10.819966165111065 3.3441450755672886 -21.151796139641277 0 0 0
421 0 7 1.575 10.866157695468347 5.465300875296124 -23.238661022516325 0 0 0
418 0 7 1.575 8.716192756098886 7.585351570834296 -23.266769245519892 0 0 0
83 0 6 1.05 8.754099174823821 5.523539772769863 -25.475529107665334 0 0 0
376 0 6 1.05 8.744866769174353 1.2798397186631427 -21.165674064863392 0 0 0
87 0 6 1.05 10.837533604282862 7.561142190396304 -25.460223096293117 0 0 0
419 0 8 -1.05 8.871456855532829 5.597675482066448 -23.052827098821766 0 0 0
84 0 8 -1.05 8.748487682145257 7.620861629103697 -25.202168947808826 0 0 0
379 0 8 -1.05 10.8362538591441 1.250924218129789 -20.884210373300018 0 0 0
422 0 8 -1.05 10.9369032345725 5.422055754061481 -21.074150983039573 0 0 0
420 0 8 -1.05 10.734191917082242 7.475129914914757 -23.082987908505835 0 0 0
377 0 8 -1.05 8.713479084769084 3.3799352700520666 -20.91103876379619 0 0 0
86 0 8 -1.05 10.83978177771512 5.477146910520883 -25.184967304352863 0 0 0
381 0 8 -1.05 10.918553851775131 3.4241888396777953 -23.16883017899107 0 0 0
30 0 8 -1.05 10.913087663761537 1.2221913873774315 -25.457690912754117 0 0 0
672 0 7 1.575 9.794850357652209 6.529325267520904 -20.058564362420892 0 0 0
382 0 7 1.575 11.913367579098884 0.20926220610129462 -22.16957182086456 0 0 0
91 0 8 -1.05 12.900096558652308 7.6676175531238995 -25.38074014772545 0 0 0
100 0 8 -1.05 15.253481556028708 5.471089229496473 -25.34786048016083 0 0 0
430 0 7 1.575 16.200072558102416 4.456332346809431 -22.219393253021458 0 0 0
426 0 7 1.575 14.01830533469569 6.521490918125849 -24.367497355065268 0 0 0
33 0 6 1.05 13.011550486335233 1.3470405954867277 -25.42991867379386 0 0 0
428 0 7 1.575 15.097394293890325 7.573089913391696 -21.145676330357503 0 0 0
384 0 7 1.575 12.97305744810045 3.3897976132586964 -23.21717588888206 0 0 0
387 0 7 1.575 15.109392800488992 1.2689461111027283 -23.214757608485463 0 0 0
37 0 6 1.05 15.101915888313476 3.3723553107933797 -25.459581284596535 0 0 0
424 0 6 1.05 13.011999690332463 5.4809373412984 -21.11092710001207 0 0 0
36 0 8 -1.05 15.127704836935493 1.3050573472929288 -25.155360459172993 0 0 0
383 0 8 -1.05 12.889064539917436 3.435798977413207 -21.062428477777154 0 0 0
425 0 8 -1.05 13.06887770042368 7.611819151420575 -20.90681457707094 0 0 0
429 0 8 -1.05 15.066702198975733 7.591749025907823 -23.080387387938465 0 0 0
423 0 8 -1.05 12.899755080105887 5.431581768374385 -23.141163436161577 0 0 0
386 0 8 -1.05 14.970330029490043 3.2742576787401867 -23.04684673127813 0 0 0
427 0 8 -1.05 15.130324970675614 5.580824698611077 -21.00637596735433 0 0 0
34 0 8 -1.05 12.996324629502771 3.4086353286330606 -25.16151830698326 0 0 0
385 0 8 -1.05 13.096828421235386 1.3940681517760491 -23.062787559351857 0 0 0
388 0 8 -1.05 15.182308196172258 1.1981693031886844 -21.060793023910435 0 0 0
636 0 7 1.575 14.021807025452853 2.302590973246383 -20.06102609604141 0 0 0
40 0 7 1.575 16.228693334494693 0.23081253738689864 -26.359705613913146 0 0 0
396 0 7 1.575 20.440317192153856 0.2149157929366218 -22.167388135442675 0 0 0
60 0 7 1.575 24.634948300351848 0.20912298757809597 -26.43519549219145 0 0 0
686 0 7 1.575 18.271530582137594 6.555114796090667 -19.979429994264564 0 0 0
650 0 7 1.575 22.535848150467128 2.3455848204866387 -20.02350905125178 0 0 0
402 0 8 -1.05 23.715522387573085 1.1338926501681938 -20.880101731044903 0 0 0
50 0 8 -1.05 19.496349882501605 1.1354628398903068 -25.160943108227023 0 0 0
395 0 8 -1.05 19.36204203923692 3.4056832802563743 -23.055496811829414 0 0 0
106 0 8 -1.05 19.283646028026524 5.583373198430635 -25.354831977378666 0 0 0
391 0 8 -1.05 17.35013166873082 3.4259347133920355 -21.003878102534806 0 0 0
399 0 8 -1.05 21.55736535408321 1.357900099377878 -23.15893035424798 0 0 0
434 0 8 -1.05 19.274871489751185 7.54345058158345 -23.197729830583455 0 0 0
54 0 8 -1.05 21.53988792410597 3.318283528819745 -25.2606577111583 0 0 0
441 0 8 -1.05 23.497835257838812 5.496362719050473 -20.89172239313278 0 0 0
436 0 8 -1.05 19.485089959455095 5.378740383259921 -20.83850025411139 0 0 0
400 0 8 -1.05 23.510033987441773 3.305987028973601 -23.157527618090477 0 0 0
393 0 8 -1.05 19.3956262073302 1.3672882047079487 -20.925446016631888 0 0 0
437 0 8 -1.05 21.47586668339079 5.526454130689929 -23.04015691575592 0 0 0
104 0 8 -1.05 17.313511647248458 7.550444100144612 -25.31665549503565 0 0 0
443 0 8 -1.05 23.575583910373314 7.788966065478901 -23.108070749053937 0 0 0
433 0 8 -1.05 17.30720846121521 5.578087301181341 -23.255670822468904 0 0 0
439 0 8 -1.05 21.447252620760114 7.528725819356817 -20.94449209836408 0 0 0
397 0 8 -1.05 21.351749396493656 3.5345710979812837 -20.911037779911876 0 0 0
56 0 8 -1.05 23.533957511116025 1.3364313976813236 -25.254268363635127 0 0 0
438 0 7 1.575 21.469174560174398 5.5417542220938785 -21.111137318583033 0 0 0
107 0 7 1.575 19.355340558629255 7.618805697017102 -25.426463377756747 0 0 0
57 0 7 1.575 23.582190485861595 3.3891963796693685 -25.35983840282468 0 0 0
390 0 6 1.05 17.241624375292147 1.3126654404488354 -21.10705305269992 0 0 0
401 0 6 1.05 23.61656738526249 1.247392654247416 -23.250715007011667 0 0 0
398 0 6 1.05 21.463610011319098 3.420076448796677 -23.260174333216195 0 0 0
103 0 7 1.575 17.25070604621643 5.510915011160022 -25.417601462627808 0 0 0
432 0 6 1.05 17.21135377858419 7.636380525537687 -23.307690301700045 0 0 0
435 0 6 1.05 19.379395631956637 5.49424751151681 -23.34735255213277 0 0 0
442 0 6 1.05 23.57736279279077 7.63906877032454 -21.120980466651005 0 0 0
394 0 7 1.575 19.34732950401149 3.395665986467284 -21.12637671308839 0 0 0
53 0 7 1.575 21.498350277635797 1.2754068589178014 -25.347668718877483 0 0 0
440 0 7 1.575 22.5468416629231 6.616473615618568 -24.306304164035062 0 0 0
444 0 7 1.575 24.625199017669836 4.448484764605312 -22.16015316266519 0 0 0
392 0 7 1.575 18.292406537368354 2.332565763189812 -24.31952914938557 0 0 0
120 0 8 -1.05 23.704999832551454 5.386342981386067 -25.16073069150831 0 0 0
111 0 8 -1.05 21.318492979907983 7.693354757893687 -25.250611159009196 0 0 0
110 0 7 1.575 20.44670437920948 4.428347487416307 -26.46067826535367 0 0 0
389 0 8 -1.05 17.155442462633562 1.2146920472846106 -23.127784716293732 0 0 0
431 0 8 -1.05 17.091960416368654 7.706006154870208 -20.923170184565848 0 0 0
41 0 8 -1.05 17.16894569891076 3.54017820556209 -25.24118039754746 0 0 0
140 0 7 1.575 7.671841242199952 8.682419839694687 -26.445946959425495 0 0 0
452 0 7 1.575 3.41490208611059 8.696227247513516 -22.201737189062364 0 0 0
130 0 8 -1.05 2.5205671745619713 9.601250983903025 -25.04421098135542 0 0 0
458 0 8 -1.05 6.7578607957009 9.66167634429559 -20.918524697748282 0 0 0
448 0 7 1.575 1.2284680264817944 10.827546541060862 -24.368971538035026 0 0 0
133 0 7 1.575 4.477870693922514 9.719241318682533 -25.45568304730512 0 0 0
450 0 7 1.575 2.365824380101461 11.838895530541182 -21.224374670712702 0 0 0
454 0 7 1.575 4.483617250837361 11.874395971160782 -23.320202561295396 0 0 0
457 0 6 1.05 6.618056842282597 9.709362886721218 -23.26619725994944 0 0 0
446 0 7 1.575 0.25696448297859514 9.815890043229826 -21.03814255877077 0 0 0
137 0 6 1.05 6.594468105205719 11.807508736565763 -25.429150963277515 0 0 0
136 0 8 -1.05 6.499142442045334 9.713980618633084 -25.275263761096728 0 0 0
453 0 8 -1.05 4.321226692371171 11.94070748673298 -21.094634342959758 0 0 0
449 0 8 -1.05 2.3263086122782055 9.853198456752706 -21.010098368466686 0 0 0
456 0 8 -1.05 6.464541807714201 11.792871431437945 -23.12286486405805 0 0 0