LAMMPS data file via write_data, version 17 Feb 2022, timestep = 61

1332 atoms
10 atom types
180 bonds
6 bond types
324 angles
6 angle types
0 dihedrals
2 dihedral types
36 impropers
2 improper types

0 25.44 xlo xhi
0 25.44 ylo yhi
35.929417 100.267417 zlo zhi

Masses

1 12.011
2 1.008
3 15.9994
4 15.9994
5 1.008
6 55.845
7 55.845
8 15.9994
9 15.9994
10 1.008

Pair Coeffs # lj/cut/coul/long

1 0.0988 3.31521
2 0.0161 2.4473
3 0.1463 3.04812
4 0.093 3.24287
5 0.0047 0.537925
6 9.0298e-07 4.9062
7 9.0298e-07 4.9062
8 0.1554 3.16554
9 0.1554 3.16554
10 0 0

Bond Coeffs # harmonic

1 361.8 1.105
2 652.57 1.218
3 383.13 1.351
4 563.51 0.973
5 554.135 1
6 0 2.08

Angle Coeffs # harmonic

1 51.617 106.55
2 65.93 123.65
3 65.262 109.49
4 115.745 122.1
5 118.817 130.25
6 30 109.47

Dihedral Coeffs # fourier

1 1 2.3 2 180
2 2 2.3 2 180 1.9 1 0

Improper Coeffs # cvff

1 10.5 -1 2
2 10.5 -1 2

Atoms # full

169 0 1 0.731 3.142771526459781 7.8594959747395 56.94380853475859 0 0 0
168 0 2 -0.123 2.9948049220953434 8.020378003709435 55.86694348559943 0 0 0
160 0 1 0.731 7.35342671354684 3.6034405692301723 56.931130961853896 0 0 0
159 0 2 -0.123 7.1886203151470385 3.7656873043703802 55.85608705256832 0 0 0
316 0 2 -0.123 11.44812936186108 7.975266128684677 55.86382676886566 0 0 0
317 0 1 0.731 11.605909638853053 7.822023597980235 56.941480143823114 0 0 0
308 0 1 0.731 15.942433451571386 3.711135476985664 56.88893779782118 0 0 0
307 0 2 -0.123 15.835419165265485 3.901987458087786 55.81139277551429 0 0 0
21 0 1 0.731 20.10777360440829 7.856477216647686 56.92372126737139 -1 0 0
20 0 2 -0.123 19.96218069705154 8.0185034149777 55.8460500683298 -1 0 0
12 0 1 0.731 24.33460690976686 3.6108677893589167 56.934108221368156 -1 0 0
11 0 2 -0.123 24.186205657167047 3.7692930542168614 55.85658864255546 -1 0 0
604 0 1 0.731 7.42452494302707 12.151387830379546 56.955348389214066 0 0 0
603 0 2 -0.123 7.278300445276854 12.342330986158377 55.883403862414774 0 0 0
613 0 1 0.731 3.1456497482900243 16.340839352444142 56.94231060879334 0 0 0
612 0 2 -0.123 2.9990771052092997 16.50078482103603 55.864688671916475 0 0 0
758 0 3 -0.804 11.222802269436132 15.475132817268642 57.438655041158206 0 0 0
752 0 1 0.731 15.850504058858292 12.066667595063524 56.93098242544296 0 0 0
751 0 2 -0.123 15.70935936324859 12.202067480374689 55.849364519854795 0 0 0
761 0 1 0.731 12.00742641930385 16.244353415066815 56.90353427791593 0 0 0
760 0 2 -0.123 12.13893181178581 16.203902391707604 55.81492085505201 0 0 0
456 0 1 0.731 24.332493477028745 12.084582273595798 56.938495199609015 -1 0 0
455 0 2 -0.123 24.181977983810935 12.24139100237983 55.86106447637904 -1 0 0
465 0 1 0.731 20.082348631805804 16.313378613306853 56.944886508892985 -1 0 0
464 0 2 -0.123 19.927612121137457 16.465678579868275 55.86681218422874 -1 0 0
1057 0 1 0.731 3.128231064852727 24.801590008004702 56.93586652463552 0 0 0
1056 0 2 -0.123 2.975940436568518 24.957213962703488 55.85828207123482 0 0 0
1048 0 1 0.731 7.420005487805113 20.639658447704164 56.955287180821365 0 0 0
1047 0 2 -0.123 7.264432021674354 20.842124013175418 55.8865692963332 0 0 0
1202 0 3 -0.804 11.194480804111897 24.018192396573948 57.41575555008504 0 0 0
1196 0 1 0.731 15.940774888866185 20.649334683427828 56.88690404707547 0 0 0
1195 0 2 -0.123 15.842483607317766 20.81911740882918 55.80585224069439 0 0 0
1205 0 1 0.731 12.044065458104884 24.7292380509846 56.91029303853062 0 0 0
1204 0 2 -0.123 12.236972719649433 24.65269162679887 55.83037955346494 0 0 0
909 0 1 0.731 20.10119918335535 24.817429512805653 56.936723562988426 -1 0 0
908 0 2 -0.123 19.95464360395778 24.977970098781825 55.85914200732417 -1 0 0
900 0 1 0.731 24.32859335064135 20.563869083725823 56.93670941464822 -1 0 0
899 0 2 -0.123 24.177514750367834 20.718434712379185 55.85869343733564 -1 0 0
15 0 9 -0.975 0.1956764904543006 6.52852211778633 59.72209898388427 0 0 0
17 0 8 -1.05 2.0573543903444853 4.669389696687149 59.73954449379408 0 0 0
19 2 7 1.575 2.240162490648804 6.632883052036142 59.39291639132407 0 0 0
14 2 7 1.575 0.08974562272183724 4.4812702046894834 59.407762264405704 0 0 0
22 0 9 -0.975 4.370903580341483 6.597991205794807 59.477454300243195 0 0 0
23 0 10 0.425 4.642634315903812 6.340496960868476 58.510651785540475 0 0 0
916 2 7 1.575 1.1954896716056933 1.283464708347847 60.70951307664242 0 1 0
891 0 8 -1.05 2.402183742121554 0.07720416272420808 59.86927449976049 0 1 0
890 0 10 0.425 0.39853599170399817 2.0924520683089374 58.50510894049342 0 1 0
197 2 7 1.575 5.4402871209518695 5.51895776209838 60.708022407690656 0 0 0
166 0 3 -0.804 2.4709574885737657 7.0194777872860925 57.52066568190541 0 0 0
158 0 3 -0.804 6.689001234438047 2.764032130692283 57.51779011894167 0 0 0
1044 0 8 -1.05 6.29811666461689 0.4238049472140856 59.72736640619443 0 1 0
1043 0 9 -0.975 4.435505837488928 2.285761465688961 59.717973411625174 0 1 0
1045 2 7 1.575 6.482791894961418 2.3894653294225914 59.395584585385976 0 1 0
1041 2 7 1.575 4.329631995409304 0.24137393342526814 59.402258820688544 0 1 0
1060 0 8 -1.05 6.64815315942716 4.3150941173171065 59.863900987685675 0 1 0
1042 0 10 0.425 3.8234520271168226 2.8966192869697074 59.150898987933104 0 1 0
164 0 3 -0.804 8.193600617608073 4.27067522697036 57.51431205378711 0 0 0
161 0 10 0.425 8.072112179075738 7.13452031834209 59.14706941411378 0 0 0
1037 0 9 -0.975 8.618490950122258 2.344900167600672 59.45582241271647 0 1 0
152 0 3 -0.804 3.9731812592736846 8.529749716766101 57.53916016425068 0 0 0
41 0 8 -1.05 0.19385381053357842 4.575772792680493 61.72556689963955 0 0 0
42 0 8 -1.05 2.144175860041357 6.527199823217725 61.73404928991555 0 0 0
39 0 8 -1.05 0.06535934381486216 6.653346776874634 63.756032260687384 0 0 0
43 2 7 1.575 2.224107965704062 4.499904906187999 61.71915077245827 0 0 0
40 2 7 1.575 0.09459538465102842 6.627659890820346 61.76264209442323 0 0 0
45 1 7 1.575 3.2666439677079446 7.70174215504696 62.78909923228117 0 0 0
920 0 8 -1.05 4.309643954136589 2.41000818693918 63.74951972861262 0 1 0
917 0 8 -1.05 2.1817942266715122 0.30034202742020233 63.957842837061186 0 1 0
934 0 8 -1.05 4.250746942339454 4.41023218091881 61.74259950089191 0 1 0
932 0 8 -1.05 2.23748398790773 4.482637062552985 63.743682725344705 0 1 0
913 0 8 -1.05 0.007992638745962576 0.17330831192838003 61.744849192779284 0 1 0
919 0 8 -1.05 2.309495646071066 2.4712592446836044 61.74159858950326 0 1 0
915 0 8 -1.05 0.1080833687058035 2.3736482338802407 63.96180566617016 0 1 0
914 2 6 1.05 0.08246549032476837 0.2738413355549892 63.862299293576115 0 1 0
918 2 6 1.05 2.2088935519156196 2.396860850956282 63.86041074442979 0 1 0
200 0 8 -1.05 6.548367110158646 6.713643153523009 61.73732991776519 0 0 0
196 0 8 -1.05 4.348541354350565 6.614456143415934 63.95888665279977 0 0 0
198 0 8 -1.05 6.420647312580419 4.538629971113769 63.95614454724937 0 0 0
195 2 6 1.05 4.324184414565379 4.512228890101184 63.85960376926849 0 0 0
199 2 6 1.05 6.44768695703036 6.637394642900894 63.85712844898666 0 0 0
1071 0 8 -1.05 6.384217326308127 2.286325417520213 61.717499365177716 0 1 0
1073 0 8 -1.05 6.481805034388157 0.24254554317900837 63.72897128574242 0 1 0
1070 0 8 -1.05 4.4383606788083885 0.33255718856499134 61.71698841266677 0 1 0
1069 2 7 1.575 4.335063946155159 2.385485844868927 61.757238375317726 0 1 0
1072 2 7 1.575 6.471099127077649 0.2604267351748729 61.70554324248209 0 1 0
1074 1 7 1.575 7.502673299253758 3.4529632000028156 62.78621800243443 0 1 0
1190 0 10 0.425 12.292726245962186 2.83605570164867 59.14818062241268 0 1 0
163 0 9 -0.975 8.677981283089816 6.520387496149097 59.71712776131375 0 0 0
165 0 8 -1.05 10.536640301707152 4.656132749834144 59.73485021574975 0 0 0
167 2 7 1.575 10.72764543125985 6.622661603189677 59.409582015923085 0 0 0
162 2 7 1.575 8.572719549409753 4.476025882269896 59.39185361790886 0 0 0
1064 2 7 1.575 9.712528090428753 1.2540479949733407 60.66862299814227 0 1 0
1039 0 8 -1.05 10.91948268951086 0.0398171902307214 59.82256185313774 0 1 0
1038 0 10 0.425 8.872021333020708 2.0896939140828388 58.48129149054163 0 1 0
314 0 3 -0.804 10.937035741014475 6.987775251697825 57.530379289878304 0 0 0
300 0 3 -0.804 12.442904993517049 8.493913457866004 57.52433677063721 0 0 0
170 0 9 -0.975 12.857584994076719 6.580191922832675 59.47353025340284 0 0 0
189 0 8 -1.05 8.67392282052866 4.571658423478917 61.7243885296269 0 0 0
190 0 8 -1.05 10.624332004309665 6.521049071880827 61.719357834833474 0 0 0
187 0 8 -1.05 8.546341915199335 6.651630484280677 63.75009539210264 0 0 0
191 2 7 1.575 10.703456626385007 4.489296899890694 61.713743943215384 0 0 0
188 2 7 1.575 8.573147824505744 6.622179193995759 61.75693256992524 0 0 0
193 1 7 1.575 11.7424706547507 7.689002577652021 62.78687264343281 0 0 0
1065 0 8 -1.05 10.66513205796601 0.2968265944249462 63.958187383719164 0 1 0
1080 0 8 -1.05 10.712090418220905 4.479666707973489 63.73707043907002 0 1 0
1061 0 8 -1.05 8.502536117368763 0.18302768633913077 61.72397571053798 0 1 0
1067 0 8 -1.05 10.802190815130658 2.4545498450110528 61.722658820096775 0 1 0
1063 0 8 -1.05 8.585606123492388 2.369535908345866 63.95833130819349 0 1 0
1062 2 6 1.05 8.568481207024936 0.26825630972362696 63.8492281361162 0 1 0
1066 2 6 1.05 10.679743366488024 2.3922888268762863 63.8536919055124 0 1 0
171 0 10 0.425 13.117267507461762 6.315397467424646 58.505821686658166 0 0 0
345 2 7 1.575 13.933856426511136 5.495432083683861 60.69985854085731 0 0 0
306 0 3 -0.804 15.259121853292294 2.849822949627381 57.4150947181634 0 0 0
1192 0 8 -1.05 14.85120982194811 0.4580026200265881 59.765487198508595 0 1 0
1191 0 9 -0.975 12.947437987159915 2.2772081536241013 59.72031521442557 0 1 0
1193 2 7 1.575 14.968627478174856 2.3822437116954203 59.25588918815146 0 1 0
1189 2 7 1.575 12.87294260229482 0.21300512532129456 59.50955190854664 0 1 0
1208 0 8 -1.05 15.121860615339356 4.276165589367632 59.84806207265548 0 1 0
312 0 3 -0.804 16.74219984600613 4.369846336369577 57.534707187688056 0 0 0
309 0 10 0.425 16.5392662930341 7.1251588309993945 59.15299732757615 0 0 0
1185 0 9 -0.975 17.116014160997043 2.3626874335953927 59.42527922980886 0 1 0
1188 0 3 -0.804 12.727685815473675 0.034369371991702515 57.59155485844917 0 1 0
1068 0 8 -1.05 12.770228311808427 2.405880840599813 63.75990568600841 0 1 0
1082 0 8 -1.05 12.73043055118212 4.410945539692458 61.743597932337494 0 1 0
348 0 8 -1.05 15.031935984050055 6.698267292309146 61.73751963488709 0 0 0
344 0 8 -1.05 12.822579177319279 6.608735163597188 63.96439883665359 0 0 0
346 0 8 -1.05 14.897160672382574 4.544933562153223 63.97516199465137 0 0 0
343 2 6 1.05 12.799637958258096 4.5078059065665785 63.863122835764614 0 0 0
347 2 6 1.05 14.921733685798706 6.633206521954372 63.8634692858083 0 0 0
1219 0 8 -1.05 14.85814566437935 2.2890113732176225 61.811890133395075 0 1 0
1221 0 8 -1.05 14.959275172130745 0.23450011379197924 63.76935699391675 0 1 0
1218 0 8 -1.05 12.931978184360796 0.3223650192409494 61.69965168527235 0 1 0
1217 2 7 1.575 12.834163895827638 2.3933583249094137 61.76528552672113 0 1 0
1220 2 7 1.575 14.97455203326771 0.2751556344859697 61.747994316897476 0 1 0
1222 1 7 1.575 15.997503855055225 3.471386535534119 62.81495587301442 0 1 0
16 0 3 -0.804 25.165299533311625 4.280658890102247 57.52785806016908 -1 0 0
49 2 7 1.575 22.39542946962834 5.521109880197266 60.70898046940218 -1 0 0
18 0 3 -0.804 19.43554061107131 7.014282599269216 57.49739018934169 -1 0 0
10 0 3 -0.804 23.66195487084286 2.772475433885199 57.51330512712159 -1 0 0
896 0 8 -1.05 23.25672747013326 0.4297565329108902 59.74077762849665 -1 1 0
895 0 9 -0.975 21.394558729223217 2.2895691870795476 59.722243751524296 -1 1 0
897 2 7 1.575 23.437266242796003 2.3918806599473106 59.386718461499896 -1 1 0
893 2 7 1.575 21.287683851845753 0.2411776225468868 59.41624527732302 -1 1 0
912 0 8 -1.05 23.602768237096065 4.313959921401549 59.86931370924875 -1 1 0
13 0 10 0.425 25.021696794576986 7.138219146726059 59.15543713978614 -1 0 0
894 0 10 0.425 20.778788451677983 2.8966928676333636 59.15477269182994 -1 1 0
311 0 9 -0.975 17.159111468083804 6.524666894060444 59.723203452865135 0 0 0
313 0 8 -1.05 19.02779509473325 4.66950030565143 59.743128443276994 0 0 0
315 2 7 1.575 19.19875416221872 6.625396684479514 59.365347947423395 0 0 0
310 2 7 1.575 17.057587343303332 4.474056025005761 59.42913044640117 0 0 0
318 0 9 -0.975 21.332583902562313 6.591069956241851 59.46427133132485 0 0 0
319 0 10 0.425 21.609444299850676 6.328251981651391 58.50005350033225 0 0 0
1212 2 7 1.575 18.148338809072435 1.288676596913324 60.696867071905366 0 1 0
1187 0 8 -1.05 19.358616262392687 0.07484836646672063 59.86958774190688 0 1 0
1186 0 10 0.425 17.430739815869273 2.1225657548464825 58.4679825724826 0 1 0
4 0 3 -0.804 20.934330492756278 8.526457130782475 57.523239488775424 -1 0 0
889 0 9 -0.975 0.12770068382242128 2.35550084941292 59.47107069550949 0 1 0
52 0 8 -1.05 23.507704594603815 6.709939760673247 61.74329299405426 -1 0 0
48 0 8 -1.05 21.307412547438116 6.61123639672088 63.96653878097513 -1 0 0
50 0 8 -1.05 23.37945838097427 4.539481326218957 63.96404358044421 -1 0 0
47 2 6 1.05 21.28070250132638 4.511528762754382 63.86560785695776 -1 0 0
51 2 6 1.05 23.406332337039082 6.635574962812639 63.862644141264305 -1 0 0
923 0 8 -1.05 23.34125449874132 2.2879110463916867 61.73584559456369 -1 1 0
925 0 8 -1.05 23.433696095668516 0.24442844103067096 63.74485553548461 -1 1 0
922 0 8 -1.05 21.39143865523837 0.336218354695121 61.722251345833804 -1 1 0
921 2 7 1.575 21.291749499008507 2.388303443958537 61.76205283253869 -1 1 0
924 2 7 1.575 23.421535661936815 0.26129879211260687 61.720159474002855 -1 1 0
926 1 7 1.575 24.462978733122064 3.459723151846747 62.7930590579191 -1 1 0
337 0 8 -1.05 17.150707889402643 4.572187527419272 61.71213708127461 0 0 0
338 0 8 -1.05 19.101624276153313 6.52523143694365 61.7464446033406 0 0 0
335 0 8 -1.05 17.02212863156687 6.645237699676065 63.75626944446246 0 0 0
339 2 7 1.575 19.18581488047151 4.501599774061465 61.721711171257446 0 0 0
336 2 7 1.575 17.059458455922034 6.627790026922406 61.76255428076815 0 0 0
341 1 7 1.575 20.22584317315215 7.697710131587948 62.796667017842886 0 0 0
1216 0 8 -1.05 21.26277924477146 2.4119857198386647 63.75562749453993 0 1 0
1213 0 8 -1.05 19.145108351090602 0.3010353426870934 63.97457737585665 0 1 0
1230 0 8 -1.05 21.20959699265104 4.412875630430497 61.748638318495004 0 1 0
1228 0 8 -1.05 19.190557272354862 4.480425088161803 63.745962182702236 0 1 0
1209 0 8 -1.05 16.988598869576588 0.18281373104178933 61.767510852548796 0 1 0
1215 0 8 -1.05 19.263903851704875 2.472301150025351 61.73918257455805 0 1 0
1211 0 8 -1.05 17.074777277272606 2.3768565998847766 63.97988670100717 0 1 0
1210 2 6 1.05 17.047990116539978 0.2759757423690359 63.87961939822392 0 1 0
1214 2 6 1.05 19.166436924591483 2.393923006882066 63.86524867224775 0 1 0
154 0 10 0.425 3.8175761510812425 11.38007878115112 59.15288260966141 0 0 0
602 0 3 -0.804 6.751954391027471 11.294484614808818 57.50674760173631 0 0 0
149 0 9 -0.975 8.617862548699035 10.848323998766512 59.48332303590243 0 0 0
28 2 7 1.575 1.1960722358187592 9.763363341260892 60.714671132472965 0 0 0
3 0 8 -1.05 2.4002522204599512 8.556347915359376 59.87418539828105 0 0 0
2 0 10 0.425 0.3995331366335112 10.56990547186235 58.510222950265536 0 0 0
156 0 8 -1.05 6.301658803309354 8.920753365550516 59.7334192959511 0 0 0
155 0 9 -0.975 4.4395551758817415 10.77646636541783 59.71740137469827 0 0 0
157 2 7 1.575 6.483204733424264 10.881185523338436 59.37071171356088 0 0 0
153 2 7 1.575 4.330462443027659 8.723694131572568 59.42189499598725 0 0 0
608 0 3 -0.804 8.250860845110475 12.80830864175245 57.570575477390335 0 0 0
32 0 8 -1.05 4.305964035537428 10.896501422139234 63.752875178952024 0 0 0
29 0 8 -1.05 2.1823817261693397 8.78280586102292 63.9594424347891 0 0 0
25 0 8 -1.05 0.007969808101552804 8.652382702226756 61.74720911327452 0 0 0
31 0 8 -1.05 2.311016232932527 10.955007806213134 61.741541413346134 0 0 0
27 0 8 -1.05 0.10884307621064876 10.854003320721588 63.96094283449644 0 0 0
26 2 6 1.05 0.08373130882684125 8.753435512289373 63.86291001486255 0 0 0
30 2 6 1.05 2.20923428992683 10.879729178617263 63.860328998194504 0 0 0
183 0 8 -1.05 6.385188171228468 10.770531836570104 61.738514256634744 0 0 0
185 0 8 -1.05 6.475945838614445 8.72200083067379 63.7386559744219 0 0 0
182 0 8 -1.05 4.434585842222171 8.817551519723551 61.714231029458325 0 0 0
181 2 7 1.575 4.338739802079169 10.873078679429439 61.75922534098815 0 0 0
184 2 7 1.575 6.466736644681657 8.743613009988444 61.71268943467054 0 0 0
186 1 7 1.575 7.514052893676565 11.948118034307996 62.781970491614345 0 0 0
459 0 9 -0.975 0.1952985101758389 15.009669400711688 59.72109337659218 0 0 0
461 0 8 -1.05 2.0574908932306606 13.152159701070659 59.73921266139732 0 0 0
463 2 7 1.575 2.2391017191046485 15.116595830950711 59.391872210021276 0 0 0
458 2 7 1.575 0.09067115527689128 12.961085034191642 59.40788539899289 0 0 0
466 0 9 -0.975 4.368634721216781 15.083151172190583 59.47769281092752 0 0 0
467 0 10 0.425 4.638532225702663 14.824470293228506 58.5106325023344 0 0 0
172 0 8 -1.05 6.64235875702355 12.800661361796074 59.87460289440107 0 0 0
641 2 7 1.575 5.439178278182829 14.009198704258296 60.711844052055476 0 0 0
610 0 3 -0.804 2.47179957688267 15.500992753357323 57.51885660804176 0 0 0
605 0 10 0.425 8.078614209711317 15.61040701049994 59.13789468595354 0 0 0
596 0 3 -0.804 3.975753227835915 17.00988917544436 57.53825759295998 0 0 0
46 0 8 -1.05 4.249327494595975 12.899003908551041 61.74367470937268 0 0 0
44 0 8 -1.05 2.236128009572853 12.966030681432308 63.7435833749101 0 0 0
485 0 8 -1.05 0.19382954571965794 13.058033229863867 61.72630932463262 0 0 0
486 0 8 -1.05 2.144392388701723 15.012090191530923 61.73181070430888 0 0 0
483 0 8 -1.05 0.06546010155106204 15.13602792144935 63.75525066727736 0 0 0
487 2 7 1.575 2.223073756392559 12.98380181385749 61.71916015470043 0 0 0
484 2 7 1.575 0.09492379498943876 15.110410459050447 61.76203839625534 0 0 0
489 1 7 1.575 3.2687220632115292 16.18924857806767 62.782780830438426 0 0 0
644 0 8 -1.05 6.56937460175176 15.200794319264961 61.72277986398896 0 0 0
640 0 8 -1.05 4.353897079841235 15.100413142901653 63.94942814333157 0 0 0
642 0 8 -1.05 6.425302245945973 13.02812918967948 63.94990667094849 0 0 0
639 2 6 1.05 4.323171058489119 12.997589928274495 63.85851736741729 0 0 0
643 2 6 1.05 6.453762420270111 15.124157959500169 63.84815223541442 0 0 0
176 2 7 1.575 9.684129271007377 9.7592615812216 60.70873348414813 0 0 0
150 0 10 0.425 8.898259549030614 10.60821756510609 58.51521505162749 0 0 0
151 0 8 -1.05 10.891816120436719 8.550914745262059 59.87064845384087 0 0 0
302 0 10 0.425 12.315227383810697 11.372755123794795 59.154012177330564 0 0 0
177 0 8 -1.05 10.660651514147977 8.776865261514914 63.953834949034885 0 0 0
173 0 8 -1.05 8.492605613742635 8.64901446455236 61.73820485300812 0 0 0
179 0 8 -1.05 10.791475898769214 10.957662011101705 61.73473756936945 0 0 0
175 0 8 -1.05 8.589184387350928 10.855576183129227 63.953248061020055 0 0 0
174 2 6 1.05 8.562890677886298 8.751970360307785 63.85556555792744 0 0 0
178 2 6 1.05 10.688324806944854 10.875658607517655 63.856906765987276 0 0 0
607 0 9 -0.975 8.715752138618967 15.023081208186722 59.70108982221533 0 0 0
609 0 8 -1.05 10.565559223231979 13.162347778268103 59.72856987162643 0 0 0
611 2 7 1.575 10.757883771654217 15.098969921407864 59.280581703008274 0 0 0
606 2 7 1.575 8.583174603522808 12.96051039390637 59.46405910741144 0 0 0
614 0 9 -0.975 12.912813058453906 15.0785495590534 59.49855083022674 0 0 0
192 0 8 -1.05 10.716841996463032 12.960655426670954 63.73987311077894 0 0 0
633 0 8 -1.05 8.684381557925303 13.055501341549306 61.69233054609444 0 0 0
634 0 8 -1.05 10.632576500633519 15.011210258282812 61.75932772855843 0 0 0
631 0 8 -1.05 8.546168613196652 15.137300463632874 63.74359789243474 0 0 0
635 2 7 1.575 10.719869082289136 12.991083150858143 61.71186238349715 0 0 0
632 2 7 1.575 8.59961260632527 15.120135266414875 61.748603293082326 0 0 0
637 1 7 1.575 11.76942608703813 16.182049273031605 62.793547762510194 0 0 0
304 0 8 -1.05 14.782224403755627 8.899481908220848 59.74188131618101 0 0 0
303 0 9 -0.975 12.924512217447298 10.760402450056754 59.722027554373724 0 0 0
305 2 7 1.575 14.968343651566961 10.863935114674383 59.39871826820032 0 0 0
301 2 7 1.575 12.817679352658141 8.712013178007508 59.40035071081295 0 0 0
297 0 9 -0.975 17.096292894886087 10.825846627170668 59.4663354775526 0 0 0
750 0 3 -0.804 15.174660387885911 11.238946730774265 57.522320280806696 0 0 0
756 0 3 -0.804 16.677217742249574 12.746786006375187 57.51596639374021 0 0 0
180 0 8 -1.05 12.787346919703976 10.888959877942877 63.7556510214855 0 0 0
331 0 8 -1.05 14.867643881926854 10.76078318119426 61.73560088054244 0 0 0
333 0 8 -1.05 14.955785029487044 8.714537038887626 63.74513526980143 0 0 0
330 0 8 -1.05 12.915034723422103 8.811307003526354 61.72852630607747 0 0 0
329 2 7 1.575 12.817378620764815 10.86108218350536 61.762435464642195 0 0 0
332 2 7 1.575 14.942494465046346 8.730125327361069 61.7212670201239 0 0 0
334 1 7 1.575 15.985916344107284 11.931799700011908 62.79850818553539 0 0 0
615 0 10 0.425 13.222076892675448 14.843983493627674 58.532975548955555 0 0 0
320 0 8 -1.05 15.140046452942109 12.786015866541732 59.876426607434205 0 0 0
789 2 7 1.575 13.94424648305857 13.989776977243702 60.73529528247345 0 0 0
753 0 10 0.425 16.549577185518302 15.624950167371642 59.17290308462846 0 0 0
194 0 8 -1.05 12.741081623885348 12.885837930899948 61.75121915909725 0 0 0
792 0 8 -1.05 15.044780485529255 15.198984109164165 61.75390726355177 0 0 0
788 0 8 -1.05 12.838636353250907 15.089674746349006 63.96586839642185 0 0 0
790 0 8 -1.05 14.902930673613493 13.016278730284368 63.96589372923996 0 0 0
787 2 6 1.05 12.804974539419646 12.989313717576545 63.864733583817994 0 0 0
791 2 6 1.05 14.938018935045989 15.11208448814158 63.870411643143854 0 0 0
460 0 3 -0.804 25.165454364248358 12.756688929821813 57.52899812868072 -1 0 0
298 0 10 0.425 17.36308114131594 10.555418979911048 58.501206290332846 0 0 0
299 0 8 -1.05 19.363745999820132 8.545015200315133 59.86418846337689 0 0 0
8 0 8 -1.05 23.258654941597285 8.904971891191561 59.741121018671635 -1 0 0
7 0 9 -0.975 21.39546430506148 10.762977277791544 59.72161796584753 -1 0 0
9 2 7 1.575 23.43985487174363 10.869235504908916 59.394987606808606 -1 0 0
5 2 7 1.575 21.292397540317825 8.715385568676988 59.40482291671809 -1 0 0
6 0 10 0.425 20.78197056660978 11.371456353017425 59.153285113451574 -1 0 0
454 0 3 -0.804 23.661938857824616 11.247979258350139 57.52066531488041 -1 0 0
324 2 7 1.575 18.162008194742604 9.752540013124719 60.70766379482827 0 0 0
1 0 9 -0.975 0.12965251635066632 10.83521185930947 59.4757744242253 0 0 0
35 0 8 -1.05 23.34394665064494 10.765696809764565 61.73278034184847 -1 0 0
37 0 8 -1.05 23.435188742077617 8.722294795974577 63.74531371007226 -1 0 0
34 0 8 -1.05 21.392805481454246 8.81291108895796 61.725573505303636 -1 0 0
33 2 7 1.575 21.29441092339399 10.863797217991022 61.76255631981682 -1 0 0
36 2 7 1.575 23.42204918091368 8.737592892986122 61.72066688533369 -1 0 0
38 1 7 1.575 24.463967797318233 11.938930193464698 62.791813900605035 -1 0 0
328 0 8 -1.05 21.26632807815958 10.889510378184788 63.75597564897886 0 0 0
325 0 8 -1.05 19.140063829861685 8.776424407917382 63.96718079215519 0 0 0
321 0 8 -1.05 16.96963240433024 8.64904413597975 61.74699691149699 0 0 0
327 0 8 -1.05 19.268625059074964 10.945308396764597 61.74432478623471 0 0 0
323 0 8 -1.05 17.06887496347487 10.846486427225647 63.968353060753664 0 0 0
322 2 6 1.05 17.042834600478045 8.74708191592787 63.86527337952958 0 0 0
326 2 6 1.05 19.167121647539513 10.872439223191545 63.86464657718242 0 0 0
24 0 8 -1.05 23.60348291523172 12.794104201512724 59.87237059845247 -1 0 0
493 2 7 1.575 22.398842123710455 13.999936007400434 60.71367615395832 -1 0 0
462 0 3 -0.804 19.413477231790413 15.478050662827696 57.532699365763605 -1 0 0
755 0 9 -0.975 17.158792635321085 15.005256104875903 59.733237818083985 0 0 0
757 0 8 -1.05 19.01651896599779 13.142601748450371 59.74482475535713 0 0 0
759 2 7 1.575 19.204118603985695 15.110898449255103 59.41221247090059 0 0 0
754 2 7 1.575 17.057504505378454 12.960078932041586 59.38967640279934 0 0 0
762 0 9 -0.975 21.3290942735309 15.073694541004652 59.478913212175684 0 0 0
457 0 10 0.425 25.019967170244506 15.617747278059532 59.15421655261503 -1 0 0
763 0 10 0.425 21.593803767299683 14.807054364368303 58.512286088623554 0 0 0
448 0 3 -0.804 20.916609708060278 16.987684825397054 57.52938778610684 -1 0 0
496 0 8 -1.05 23.50876598757037 15.192564176104785 61.74440666089263 -1 0 0
492 0 8 -1.05 21.308926616730187 15.092701058684396 63.965481408052476 -1 0 0
494 0 8 -1.05 23.381102592365135 13.020594887501645 63.962375784178306 -1 0 0
491 2 6 1.05 21.28549746563008 12.990907713278926 63.86463924909777 -1 0 0
495 2 6 1.05 23.407539404971295 15.118148020575566 63.862871543249774 -1 0 0
342 0 8 -1.05 21.21040928661503 12.887672779882907 61.74677979559578 0 0 0
340 0 8 -1.05 19.20128699640058 12.958798675640917 63.75054296927607 0 0 0
781 0 8 -1.05 17.15893025684802 13.057543452956729 61.74669564392587 0 0 0
782 0 8 -1.05 19.11640530683794 15.003567938221035 61.73094737075514 0 0 0
779 0 8 -1.05 17.036962195749208 15.133476081635475 63.76847177248368 0 0 0
783 2 7 1.575 19.184772996101216 12.974435735671554 61.724565159646076 0 0 0
780 2 7 1.575 17.067905282223926 15.106882196290284 61.774988107921594 0 0 0
785 1 7 1.575 20.2251919635479 16.18115758808883 62.797035733908125 0 0 0
593 0 9 -0.975 8.629388719885036 19.322324642567285 59.46853498764993 0 0 0
472 2 7 1.575 1.196112211787821 18.247268781206362 60.71254544614619 0 0 0
447 0 8 -1.05 2.4009268127758827 17.04032870512285 59.87266502092774 0 0 0
446 0 10 0.425 0.39541210462500664 19.050965600505126 58.50841943512429 0 0 0
903 0 9 -0.975 0.19421692763294135 23.487917697107402 59.72187254885904 0 0 0
905 0 8 -1.05 2.0552124981789435 21.627770159585427 59.73926138250849 0 0 0
907 2 7 1.575 2.237968584839267 23.592521067498712 59.39615361864018 0 0 0
902 2 7 1.575 0.08877130063588343 21.442122887362924 59.403986321808745 0 0 0
910 0 9 -0.975 4.364830890166579 23.555760432481126 59.4705702363093 0 0 0
1049 0 10 0.425 8.057961599051792 24.082267473269592 59.12391385509732 0 0 0
911 0 10 0.425 4.6305201696246145 23.291656616410094 58.50457970503457 0 0 0
1052 0 3 -0.804 8.252162502546124 21.290995058707736 57.568856235735744 0 0 0
600 0 8 -1.05 6.304893665088119 17.399927679724666 59.725477065840714 0 0 0
599 0 9 -0.975 4.440832136603801 19.25751444987711 59.71352946141876 0 0 0
601 2 7 1.575 6.4860199154742375 19.360116701742914 59.36474550000646 0 0 0
597 2 7 1.575 4.330994299623589 17.207044440524246 59.421739310320945 0 0 0
616 0 8 -1.05 6.640855479081729 21.27843583509413 59.86695437081624 0 0 0
598 0 10 0.425 3.819707590185999 19.86263425860884 59.15003895414851 0 0 0
1085 2 7 1.575 5.435872222991165 22.486958941791592 60.70669415185549 0 0 0
1054 0 3 -0.804 2.455804407274513 23.966033310004065 57.52001840919106 0 0 0
1046 0 3 -0.804 6.751306565171337 19.77714943532496 57.502772179847526 0 0 0
1040 0 3 -0.804 3.962606682920152 0.031372509028619475 57.524210159110666 0 1 0
476 0 8 -1.05 4.309235331781499 19.374832962869064 63.748181223475726 0 0 0
473 0 8 -1.05 2.1824381492570066 17.26384664814913 63.95631737453111 0 0 0
490 0 8 -1.05 4.247822104426116 21.37958272193438 61.74132686288176 0 0 0
488 0 8 -1.05 2.239807954488475 21.445099343702804 63.74280531724346 0 0 0
469 0 8 -1.05 0.008138717007221007 17.1353006038348 61.74515309519775 0 0 0
475 0 8 -1.05 2.3140971509614254 19.43444066906195 61.73998868096089 0 0 0
471 0 8 -1.05 0.10937452239033241 19.33529115001848 63.96058801740012 0 0 0
470 2 6 1.05 0.08389984463115147 17.235129480118562 63.86163432394466 0 0 0
474 2 6 1.05 2.2106548605448433 19.360079787452392 63.858394150401026 0 0 0
929 0 8 -1.05 0.19369187742284735 21.536252953493374 61.72847263377503 0 0 0
930 0 8 -1.05 2.1424888203500294 23.489192658494172 61.72914965961695 0 0 0
927 0 8 -1.05 0.06501770731704386 23.614012787992465 63.755527286041996 0 0 0
931 2 7 1.575 2.2223390508406906 21.461787377783832 61.719347346303294 0 0 0
928 2 7 1.575 0.09263534757030617 23.588465197603835 61.76237379474075 0 0 0
933 1 7 1.575 3.2650448805579146 24.660430877957097 62.786698890075236 0 0 0
627 0 8 -1.05 6.388722461441953 19.254159594163337 61.72704425224188 0 0 0
629 0 8 -1.05 6.48190485841701 17.2089745124238 63.72906729970774 0 0 0
626 0 8 -1.05 4.441870009801346 17.300305123005135 61.70924030859857 0 0 0
625 2 7 1.575 4.342873535640014 19.355902158677484 61.75517760159139 0 0 0
628 2 7 1.575 6.4786597199320815 17.230954001500727 61.705065579456985 0 0 0
630 1 7 1.575 7.521998661683946 20.429915544855163 62.76957158570714 0 0 0
1088 0 8 -1.05 6.567181063160426 23.674422273805668 61.719895381522576 0 0 0
1084 0 8 -1.05 4.35241864748441 23.573562455798406 63.951665448147786 0 0 0
1086 0 8 -1.05 6.4290144485244785 21.500833750715337 63.94422534728496 0 0 0
1083 2 6 1.05 4.33031029369735 21.47322951473377 63.85352500219511 0 0 0
1087 2 6 1.05 6.454046944788264 23.59713043954831 63.84145268839107 0 0 0
1050 2 7 1.575 8.58620493558982 21.447794972541594 59.4640255477565 0 0 0
1055 2 7 1.575 10.76213425074949 23.58533126463523 59.23008859832797 0 0 0
1053 0 8 -1.05 10.576434451814599 21.657936233446115 59.71401418542312 0 0 0
595 0 8 -1.05 10.908581764243522 17.01081694771431 59.80390632976028 0 0 0
1051 0 9 -0.975 8.71192334237425 23.50820475908317 59.68285136649015 0 0 0
594 0 10 0.425 8.901324631215074 19.090021813190322 58.49378324417466 0 0 0
620 2 7 1.575 9.711320200444172 18.21636664117116 60.669581130079145 0 0 0
746 0 10 0.425 12.309756447099755 19.809102908744116 59.14266705598048 0 0 0
1058 0 9 -0.975 12.955302734121876 23.545360863080425 59.491839813063464 0 0 0
621 0 8 -1.05 10.667098927201902 17.256812493867983 63.95218716497836 0 0 0
636 0 8 -1.05 10.71163172860125 21.429325805971995 63.73081213774196 0 0 0