LAMMPS data file via write_data, version 29 Sep 2021, timestep = 3664349

1332 atoms
10 atom types
180 bonds
6 bond types
324 angles
6 angle types
0 dihedrals
2 dihedral types
36 impropers
2 improper types

0 25.44 xlo xhi
0 25.44 ylo yhi
35.929417 100.267417 zlo zhi

Masses

1 12.011
2 1.008
3 15.9994
4 15.9994
5 1.008
6 55.845
7 55.845
8 15.9994
9 15.9994
10 1.008

Pair Coeffs # lj/cut/coul/long

1 0.0988 3.31521
2 0.0161 2.4473
3 0.1463 3.04812
4 0.093 3.24287
5 0.0047 0.537925
6 9.0298e-07 4.9062
7 9.0298e-07 4.9062
8 0.1554 3.16554
9 0.1554 3.16554
10 0 0

Bond Coeffs # harmonic

1 361.8 1.105
2 652.57 1.218
3 383.13 1.351
4 563.51 0.973
5 554.135 1
6 0 2.08

Angle Coeffs # harmonic

1 51.617 106.55
2 65.93 123.65
3 65.262 109.49
4 115.745 122.1
5 118.817 130.25
6 30 109.47

Dihedral Coeffs # fourier

1 1 2.3 2 180
2 2 2.3 2 180 1.9 1 0

Improper Coeffs # cvff

1 10.5 -1 2
2 10.5 -1 2

Atoms # full

169 0 1 0.731 3.3073151545861283 7.6612336768205695 57.09704614226644 0 0 0
168 0 2 -0.123 3.1698339050879243 7.798990190785806 56.016057221064884 0 0 0
160 0 1 0.731 7.537594324330592 3.4126597586308485 57.09775338425335 0 0 0
159 0 2 -0.123 7.39265923622303 3.5580411174058377 56.01876556899552 0 0 0
176 2 7 1.575 9.621178 9.81944 60.678416999999996 0 0 0
154 0 10 0.425 3.877599226782738 11.320979961463113 59.15799056073647 0 0 0
604 0 1 0.731 7.572006934844393 11.94419611354083 57.09507166895049 0 0 0
316 0 2 -0.123 11.649743645867675 7.792288938147062 56.01559012267627 0 0 0
15 0 9 -0.975 0.22203323204831585 6.499469112130708 59.800959308778694 0 0 0
17 0 8 -1.05 2.1643419999999987 4.556274999999999 59.655252 0 0 0
19 2 7 1.575 2.2011779999999987 6.6394400000000005 59.618416999999994 0 0 0
14 2 7 1.575 0.08117799999999864 4.5194399999999995 59.618416999999994 0 0 0
22 0 9 -0.975 4.229042400744535 6.7333637303354115 59.72456220097131 0 0 0
150 0 10 0.425 8.666396388286929 10.770325260908638 58.70668386547057 0 0 0
23 0 10 0.425 4.423394282727205 6.536842516134154 58.71056315089014 0 0 0
602 0 3 -0.804 6.898814194872256 11.102156618295957 57.683989104046674 0 0 0
916 2 7 1.575 1.1411779999999991 1.3394399999999997 60.678416999999996 0 1 0
891 0 8 -1.05 2.2380129999999987 0.24260500000000107 59.581582000000004 0 1 0
149 0 9 -0.975 8.473913309619544 10.977416779459796 59.71874335791326 0 0 0
890 0 10 0.425 0.18185368765850068 2.2973623333240574 58.711265850418066 0 1 0
197 2 7 1.575 5.381178 5.57944 60.678416999999996 0 0 0
166 0 3 -0.804 2.627203401048385 6.828692646534024 57.68813910530838 0 0 0
158 0 3 -0.804 6.862026784043237 2.5753867393631316 57.68782580612259 0 0 0
1044 0 8 -1.05 6.404343000000001 0.3162749999999974 59.655252 0 1 0
1043 0 9 -0.975 4.461893018948899 2.2585100704702037 59.80066335363506 0 1 0
1045 2 7 1.575 6.441178000000001 2.3994399999999985 59.618416999999994 0 1 0
1041 2 7 1.575 4.321178 0.27943999999999747 59.618416999999994 0 1 0
1060 0 8 -1.05 6.478013000000001 4.4826049999999995 59.581582000000004 0 1 0
1190 0 10 0.425 12.364941388003047 2.8401407313345266 59.156114712277265 0 1 0
1042 0 10 0.425 3.8785443035878657 2.8415224027870836 59.158701732403905 0 1 0
163 0 9 -0.975 8.700265061789532 6.499018691638485 59.80082281856016 0 0 0
165 0 8 -1.05 10.644341999999998 4.556274999999999 59.655252 0 0 0
167 2 7 1.575 10.681178 6.6394400000000005 59.618416999999994 0 0 0
162 2 7 1.575 8.561177999999998 4.5194399999999995 59.618416999999994 0 0 0
164 0 3 -0.804 8.370792931770135 4.092680919185421 57.68914806767619 0 0 0
161 0 10 0.425 8.118994852255502 7.080815940378026 59.15642701736685 0 0 0
1064 2 7 1.575 9.621178 1.3394399999999997 60.678416999999996 0 1 0
1039 0 8 -1.05 10.718013 0.24260500000000107 59.581582000000004 0 1 0
1037 0 9 -0.975 8.467119579491337 2.4906903145820194 59.72468429268115 0 1 0
1038 0 10 0.425 8.666117561612841 2.303981170128917 58.709688869469204 0 1 0
151 0 8 -1.05 10.718013 8.722605 59.581582000000004 0 0 0
28 2 7 1.575 1.1411779999999991 9.81944 60.678416999999996 0 0 0
3 0 8 -1.05 2.2380129999999987 8.722605 59.581582000000004 0 0 0
302 0 10 0.425 12.370590859480933 11.325041652820195 59.15127744259642 0 0 0
2 0 10 0.425 0.1817831361090769 10.77748306678252 58.71262750839895 0 0 0
156 0 8 -1.05 6.404343000000001 8.796274999999998 59.655252 0 0 0
155 0 9 -0.975 4.4630523949504415 10.740184348705347 59.800004505754394 0 0 0
157 2 7 1.575 6.441178000000001 10.879439999999999 59.618416999999994 0 0 0
153 2 7 1.575 4.321178 8.759439999999998 59.618416999999994 0 0 0
152 0 3 -0.804 4.138952168160086 8.344298941097039 57.68834967367586 0 0 0
314 0 3 -0.804 11.096377698814551 6.827247022884858 57.68772820811053 0 0 0
317 0 1 0.731 11.783497138624748 7.655078164135865 57.097098331084304 0 0 0
603 0 2 -0.123 7.441047456717529 12.07427073079309 56.01238348227742 0 0 0
608 0 3 -0.804 8.387688395191384 12.645980624126059 57.68849249187488 0 0 0
300 0 3 -0.804 12.614702307636255 8.335618293133747 57.690050859521236 0 0 0
170 0 9 -0.975 12.70594863144663 6.732141282825901 59.726213984111 0 0 0
41 0 8 -1.05 0.11801299999999859 4.556274999999999 61.701581999999995 0 0 0
42 0 8 -1.05 2.1643419999999987 6.6026050000000005 61.701581999999995 0 0 0
39 0 8 -1.05 0.04434299999999958 6.676275 63.82158199999999 0 0 0
43 2 7 1.575 2.2011779999999987 4.5194399999999995 61.73841699999999 0 0 0
40 2 7 1.575 0.08117799999999864 6.6394400000000005 61.73841699999999 0 0 0
45 1 7 1.575 3.2611779999999992 7.69944 62.798417 0 0 0
920 0 8 -1.05 4.284343 2.4362749999999984 63.82158199999999 0 1 0
917 0 8 -1.05 2.1643419999999987 0.3162749999999974 63.89525199999999 0 1 0
934 0 8 -1.05 4.284343 4.4826049999999995 61.775251999999995 0 1 0
932 0 8 -1.05 2.2380129999999987 4.4826049999999995 63.82158199999999 0 1 0
913 0 8 -1.05 0.04434299999999958 0.24260500000000107 61.775251999999995 0 1 0
919 0 8 -1.05 2.2380129999999987 2.4362749999999984 61.775251999999995 0 1 0
915 0 8 -1.05 0.11801299999999859 2.3626039999999975 63.89525199999999 0 1 0
914 2 6 1.05 0.08117799999999864 0.27943999999999747 63.858416999999996 0 1 0
918 2 6 1.05 2.2011779999999987 2.3994399999999985 63.858416999999996 0 1 0
200 0 8 -1.05 6.478013000000001 6.676275 61.775251999999995 0 0 0
196 0 8 -1.05 4.358013 6.6026050000000005 63.89525199999999 0 0 0
198 0 8 -1.05 6.404343000000001 4.556274999999999 63.89525199999999 0 0 0
195 2 6 1.05 4.321178 4.5194399999999995 63.858416999999996 0 0 0
199 2 6 1.05 6.441178000000001 6.6394400000000005 63.858416999999996 0 0 0
1071 0 8 -1.05 6.404343000000001 2.3626039999999975 61.701581999999995 0 1 0
1073 0 8 -1.05 6.478013000000001 0.24260500000000107 63.82158199999999 0 1 0
1070 0 8 -1.05 4.358013 0.3162749999999974 61.701581999999995 0 1 0
1069 2 7 1.575 4.321178 2.3994399999999985 61.73841699999999 0 1 0
1072 2 7 1.575 6.441178000000001 0.27943999999999747 61.73841699999999 0 1 0
1074 1 7 1.575 7.501178 3.459439999999997 62.798417 0 1 0
189 0 8 -1.05 8.598012999999998 4.556274999999999 61.701581999999995 0 0 0
190 0 8 -1.05 10.644341999999998 6.6026050000000005 61.701581999999995 0 0 0
187 0 8 -1.05 8.524343 6.676275 63.82158199999999 0 0 0
191 2 7 1.575 10.681178 4.5194399999999995 61.73841699999999 0 0 0
188 2 7 1.575 8.561177999999998 6.6394400000000005 61.73841699999999 0 0 0
193 1 7 1.575 11.741178 7.69944 62.798417 0 0 0
1065 0 8 -1.05 10.644341999999998 0.3162749999999974 63.89525199999999 0 1 0
1080 0 8 -1.05 10.718013 4.4826049999999995 63.82158199999999 0 1 0
1061 0 8 -1.05 8.524343 0.24260500000000107 61.775251999999995 0 1 0
1067 0 8 -1.05 10.718013 2.4362749999999984 61.775251999999995 0 1 0
1063 0 8 -1.05 8.598012999999998 2.3626039999999975 63.89525199999999 0 1 0
1062 2 6 1.05 8.561177999999998 0.27943999999999747 63.858416999999996 0 1 0
1066 2 6 1.05 10.681178 2.3994399999999985 63.858416999999996 0 1 0
32 0 8 -1.05 4.284343 10.916274999999999 63.82158199999999 0 0 0
29 0 8 -1.05 2.1643419999999987 8.796274999999998 63.89525199999999 0 0 0
25 0 8 -1.05 0.04434299999999958 8.722605 61.775251999999995 0 0 0
31 0 8 -1.05 2.2380129999999987 10.916274999999999 61.775251999999995 0 0 0
27 0 8 -1.05 0.11801299999999859 10.842603999999998 63.89525199999999 0 0 0
26 2 6 1.05 0.08117799999999864 8.759439999999998 63.858416999999996 0 0 0
30 2 6 1.05 2.2011779999999987 10.879439999999999 63.858416999999996 0 0 0
183 0 8 -1.05 6.404343000000001 10.842603999999998 61.701581999999995 0 0 0
185 0 8 -1.05 6.478013000000001 8.722605 63.82158199999999 0 0 0
182 0 8 -1.05 4.358013 8.796274999999998 61.701581999999995 0 0 0
181 2 7 1.575 4.321178 10.879439999999999 61.73841699999999 0 0 0
184 2 7 1.575 6.441178000000001 8.759439999999998 61.73841699999999 0 0 0
186 1 7 1.575 7.501178 11.93944 62.798417 0 0 0
177 0 8 -1.05 10.644341999999998 8.796274999999998 63.89525199999999 0 0 0
173 0 8 -1.05 8.524343 8.722605 61.775251999999995 0 0 0
179 0 8 -1.05 10.718013 10.916274999999999 61.775251999999995 0 0 0
175 0 8 -1.05 8.598012999999998 10.842603999999998 63.89525199999999 0 0 0
174 2 6 1.05 8.561177999999998 8.759439999999998 63.858416999999996 0 0 0
178 2 6 1.05 10.681178 10.879439999999999 63.858416999999996 0 0 0
88 0 8 -1.05 0.11801299999999859 4.556274999999999 70.18158199999998 0 0 0
89 0 8 -1.05 0.11801299999999859 6.6026050000000005 68.135252 0 0 0
91 0 8 -1.05 2.1643419999999987 6.6026050000000005 70.18158199999998 0 0 0
90 0 8 -1.05 2.1643419999999987 4.556274999999999 68.135252 0 0 0
68 2 6 1.05 2.2011779999999987 6.6394400000000005 68.09841699999998 0 0 0
92 2 7 1.575 2.2011779999999987 4.5194399999999995 70.21841699999999 0 0 0
87 2 7 1.575 0.08117799999999864 6.6394400000000005 70.21841699999999 0 0 0
66 2 6 1.05 0.08117799999999864 4.5194399999999995 68.09841699999998 0 0 0
93 1 7 1.575 3.2611779999999992 7.69944 71.27841699999999 0 0 0
69 0 8 -1.05 2.2380129999999987 6.676275 66.01525199999999 0 0 0
70 0 8 -1.05 4.284343 6.676275 68.06158199999999 0 0 0
67 1 7 1.575 1.1411779999999991 5.57944 64.91841699999998 0 0 0
982 0 8 -1.05 4.284343 4.4826049999999995 70.25525199999998 0 1 0
965 0 8 -1.05 0.04434299999999958 0.24260500000000107 70.25525199999998 0 1 0
967 0 8 -1.05 2.2380129999999987 2.4362749999999984 70.25525199999998 0 1 0
966 1 7 1.575 1.1411779999999991 1.3394399999999997 69.158417 0 1 0
944 0 8 -1.05 2.1643419999999987 2.3626039999999975 65.94158099999999 0 1 0
946 0 8 -1.05 2.2380129999999987 0.24260500000000107 68.06158199999999 0 1 0
953 0 8 -1.05 0.04434299999999958 4.4826049999999995 66.01525199999999 0 1 0
941 0 8 -1.05 0.04434299999999958 2.4362749999999984 68.06158199999999 0 1 0
943 0 8 -1.05 0.11801299999999859 0.3162749999999974 65.94158099999999 0 1 0
948 0 8 -1.05 4.284343 0.24260500000000107 66.01525199999999 0 1 0
942 2 7 1.575 0.08117799999999864 2.3994399999999985 65.978417 0 1 0
945 2 7 1.575 2.2011779999999987 0.27943999999999747 65.978417 0 1 0
947 1 7 1.575 3.2611779999999992 3.459439999999997 67.038417 0 1 0
244 0 8 -1.05 6.478013000000001 6.676275 70.25525199999998 0 0 0
243 1 7 1.575 5.381178 5.57944 69.158417 0 0 0
220 0 8 -1.05 4.358013 4.556274999999999 65.94158099999999 0 0 0
221 0 8 -1.05 6.404343000000001 6.6026050000000005 65.94158099999999 0 0 0
222 2 7 1.575 6.441178000000001 4.5194399999999995 65.978417 0 0 0
219 2 7 1.575 4.321178 6.6394400000000005 65.978417 0 0 0
224 1 7 1.575 7.501178 7.69944 67.038417 0 0 0
1119 0 8 -1.05 6.404343000000001 0.3162749999999974 68.135252 0 1 0
1120 0 8 -1.05 6.404343000000001 2.3626039999999975 70.18158199999998 0 1 0
1118 0 8 -1.05 4.358013 2.3626039999999975 68.135252 0 1 0
1117 0 8 -1.05 4.358013 0.3162749999999974 70.18158199999998 0 1 0
1099 2 6 1.05 6.441178000000001 2.3994399999999985 68.09841699999998 0 1 0
1097 2 6 1.05 4.321178 0.27943999999999747 68.09841699999998 0 1 0
1116 2 7 1.575 4.321178 2.3994399999999985 70.21841699999999 0 1 0
1121 2 7 1.575 6.441178000000001 0.27943999999999747 70.21841699999999 0 1 0
1122 1 7 1.575 7.501178 3.459439999999997 71.27841699999999 0 1 0
1100 0 8 -1.05 6.478013000000001 2.4362749999999984 66.01525199999999 0 1 0
1111 0 8 -1.05 6.478013000000001 4.4826049999999995 68.06158199999999 0 1 0
1098 1 7 1.575 5.381178 1.3394399999999997 64.91841699999998 0 1 0
236 0 8 -1.05 8.598012999999998 4.556274999999999 70.18158199999998 0 0 0
237 0 8 -1.05 8.598012999999998 6.6026050000000005 68.135252 0 0 0
239 0 8 -1.05 10.644341999999998 6.6026050000000005 70.18158199999998 0 0 0
238 0 8 -1.05 10.644341999999998 4.556274999999999 68.135252 0 0 0
216 2 6 1.05 10.681178 6.6394400000000005 68.09841699999998 0 0 0
240 2 7 1.575 10.681178 4.5194399999999995 70.21841699999999 0 0 0
235 2 7 1.575 8.561177999999998 6.6394400000000005 70.21841699999999 0 0 0
214 2 6 1.05 8.561177999999998 4.5194399999999995 68.09841699999998 0 0 0
241 1 7 1.575 11.741178 7.69944 71.27841699999999 0 0 0
217 0 8 -1.05 10.718013 6.676275 66.01525199999999 0 0 0
215 1 7 1.575 9.621178 5.57944 64.91841699999998 0 0 0
1113 0 8 -1.05 8.524343 0.24260500000000107 70.25525199999998 0 1 0
1115 0 8 -1.05 10.718013 2.4362749999999984 70.25525199999998 0 1 0
1114 1 7 1.575 9.621178 1.3394399999999997 69.158417 0 1 0
1092 0 8 -1.05 10.644341999999998 2.3626039999999975 65.94158099999999 0 1 0
1094 0 8 -1.05 10.718013 0.24260500000000107 68.06158199999999 0 1 0
1101 0 8 -1.05 8.524343 4.4826049999999995 66.01525199999999 0 1 0
1089 0 8 -1.05 8.524343 2.4362749999999984 68.06158199999999 0 1 0
1091 0 8 -1.05 8.598012999999998 0.3162749999999974 65.94158099999999 0 1 0
1090 2 7 1.575 8.561177999999998 2.3994399999999985 65.978417 0 1 0
1093 2 7 1.575 10.681178 0.27943999999999747 65.978417 0 1 0
1095 1 7 1.575 11.741178 3.459439999999997 67.038417 0 1 0
77 0 8 -1.05 0.04434299999999958 8.722605 70.25525199999998 0 0 0
79 0 8 -1.05 2.2380129999999987 10.916274999999999 70.25525199999998 0 0 0
78 1 7 1.575 1.1411779999999991 9.81944 69.158417 0 0 0
56 0 8 -1.05 2.1643419999999987 10.842603999999998 65.94158099999999 0 0 0
58 0 8 -1.05 2.2380129999999987 8.722605 68.06158199999999 0 0 0
53 0 8 -1.05 0.04434299999999958 10.916274999999999 68.06158199999999 0 0 0
55 0 8 -1.05 0.11801299999999859 8.796274999999998 65.94158099999999 0 0 0
60 0 8 -1.05 4.284343 8.722605 66.01525199999999 0 0 0
54 2 7 1.575 0.08117799999999864 10.879439999999999 65.978417 0 0 0
57 2 7 1.575 2.2011779999999987 8.759439999999998 65.978417 0 0 0
59 1 7 1.575 3.2611779999999992 11.93944 67.038417 0 0 0
231 0 8 -1.05 6.404343000000001 8.796274999999998 68.135252 0 0 0
232 0 8 -1.05 6.404343000000001 10.842603999999998 70.18158199999998 0 0 0
230 0 8 -1.05 4.358013 10.842603999999998 68.135252 0 0 0
229 0 8 -1.05 4.358013 8.796274999999998 70.18158199999998 0 0 0
211 2 6 1.05 6.441178000000001 10.879439999999999 68.09841699999998 0 0 0
209 2 6 1.05 4.321178 8.759439999999998 68.09841699999998 0 0 0
228 2 7 1.575 4.321178 10.879439999999999 70.21841699999999 0 0 0
233 2 7 1.575 6.441178000000001 8.759439999999998 70.21841699999999 0 0 0
234 1 7 1.575 7.501178 11.93944 71.27841699999999 0 0 0
212 0 8 -1.05 6.478013000000001 10.916274999999999 66.01525199999999 0 0 0
210 1 7 1.575 5.381178 9.81944 64.91841699999998 0 0 0
225 0 8 -1.05 8.524343 8.722605 70.25525199999998 0 0 0
227 0 8 -1.05 10.718013 10.916274999999999 70.25525199999998 0 0 0
226 1 7 1.575 9.621178 9.81944 69.158417 0 0 0
204 0 8 -1.05 10.644341999999998 10.842603999999998 65.94158099999999 0 0 0
206 0 8 -1.05 10.718013 8.722605 68.06158199999999 0 0 0
201 0 8 -1.05 8.524343 10.916274999999999 68.06158199999999 0 0 0
203 0 8 -1.05 8.598012999999998 8.796274999999998 65.94158099999999 0 0 0
202 2 7 1.575 8.561177999999998 10.879439999999999 65.978417 0 0 0
205 2 7 1.575 10.681178 8.759439999999998 65.978417 0 0 0
207 1 7 1.575 11.741178 11.93944 67.038417 0 0 0
115 0 8 -1.05 2.2380129999999987 6.676275 74.49525199999998 0 0 0
112 0 8 -1.05 0.04434299999999958 6.676275 72.30158199999998 0 0 0
113 1 7 1.575 1.1411779999999991 5.57944 73.398417 0 0 0
990 0 8 -1.05 2.1643419999999987 2.3626039999999975 74.421581 0 1 0
995 0 8 -1.05 4.284343 2.4362749999999984 72.30158199999998 0 1 0
999 0 8 -1.05 0.04434299999999958 4.4826049999999995 74.49525199999998 0 1 0
989 0 8 -1.05 2.1643419999999987 0.3162749999999974 72.37525199999999 0 1 0
1002 0 8 -1.05 2.2380129999999987 4.4826049999999995 72.30158199999998 0 1 0
987 0 8 -1.05 0.11801299999999859 0.3162749999999974 74.421581 0 1 0
994 0 8 -1.05 4.284343 0.24260500000000107 74.49525199999998 0 1 0
988 0 8 -1.05 0.11801299999999859 2.3626039999999975 72.37525199999999 0 1 0
985 2 6 1.05 0.08117799999999864 0.27943999999999747 72.33841699999998 0 1 0
986 2 7 1.575 0.08117799999999864 2.3994399999999985 74.458417 0 1 0
991 2 7 1.575 2.2011779999999987 0.27943999999999747 74.458417 0 1 0
992 2 6 1.05 2.2011779999999987 2.3994399999999985 72.33841699999998 0 1 0
267 0 8 -1.05 4.358013 6.6026050000000005 72.37525199999999 0 0 0
266 0 8 -1.05 4.358013 4.556274999999999 74.421581 0 0 0
268 0 8 -1.05 6.404343000000001 4.556274999999999 72.37525199999999 0 0 0
269 0 8 -1.05 6.404343000000001 6.6026050000000005 74.421581 0 0 0
264 2 6 1.05 4.321178 4.5194399999999995 72.33841699999998 0 0 0
270 2 7 1.575 6.441178000000001 4.5194399999999995 74.458417 0 0 0
265 2 7 1.575 4.321178 6.6394400000000005 74.458417 0 0 0
271 2 6 1.05 6.441178000000001 6.6394400000000005 72.33841699999998 0 0 0
1145 0 8 -1.05 6.478013000000001 0.24260500000000107 72.30158199999998 0 1 0
1146 0 8 -1.05 6.478013000000001 2.4362749999999984 74.49525199999998 0 1 0
1144 1 7 1.575 5.381178 1.3394399999999997 73.398417 0 1 0
263 0 8 -1.05 10.718013 6.676275 74.49525199999998 0 0 0
260 0 8 -1.05 8.524343 6.676275 72.30158199999998 0 0 0
261 1 7 1.575 9.621178 5.57944 73.398417 0 0 0
1138 0 8 -1.05 10.644341999999998 2.3626039999999975 74.421581 0 1 0
1147 0 8 -1.05 8.524343 4.4826049999999995 74.49525199999998 0 1 0
1137 0 8 -1.05 10.644341999999998 0.3162749999999974 72.37525199999999 0 1 0
1150 0 8 -1.05 10.718013 4.4826049999999995 72.30158199999998 0 1 0
1135 0 8 -1.05 8.598012999999998 0.3162749999999974 74.421581 0 1 0
1136 0 8 -1.05 8.598012999999998 2.3626039999999975 72.37525199999999 0 1 0
1133 2 6 1.05 8.561177999999998 0.27943999999999747 72.33841699999998 0 1 0
1134 2 7 1.575 8.561177999999998 2.3994399999999985 74.458417 0 1 0
1139 2 7 1.575 10.681178 0.27943999999999747 74.458417 0 1 0
1140 2 6 1.05 10.681178 2.3994399999999985 72.33841699999998 0 1 0
102 0 8 -1.05 2.1643419999999987 10.842603999999998 74.421581 0 0 0
107 0 8 -1.05 4.284343 10.916274999999999 72.30158199999998 0 0 0
101 0 8 -1.05 2.1643419999999987 8.796274999999998 72.37525199999999 0 0 0
99 0 8 -1.05 0.11801299999999859 8.796274999999998 74.421581 0 0 0
106 0 8 -1.05 4.284343 8.722605 74.49525199999998 0 0 0
100 0 8 -1.05 0.11801299999999859 10.842603999999998 72.37525199999999 0 0 0
97 2 6 1.05 0.08117799999999864 8.759439999999998 72.33841699999998 0 0 0
98 2 7 1.575 0.08117799999999864 10.879439999999999 74.458417 0 0 0
103 2 7 1.575 2.2011779999999987 8.759439999999998 74.458417 0 0 0
104 2 6 1.05 2.2011779999999987 10.879439999999999 72.33841699999998 0 0 0
257 0 8 -1.05 6.478013000000001 8.722605 72.30158199999998 0 0 0
258 0 8 -1.05 6.478013000000001 10.916274999999999 74.49525199999998 0 0 0
256 1 7 1.575 5.381178 9.81944 73.398417 0 0 0
250 0 8 -1.05 10.644341999999998 10.842603999999998 74.421581 0 0 0
249 0 8 -1.05 10.644341999999998 8.796274999999998 72.37525199999999 0 0 0
247 0 8 -1.05 8.598012999999998 8.796274999999998 74.421581 0 0 0
248 0 8 -1.05 8.598012999999998 10.842603999999998 72.37525199999999 0 0 0
245 2 6 1.05 8.561177999999998 8.759439999999998 72.33841699999998 0 0 0
246 2 7 1.575 8.561177999999998 10.879439999999999 74.458417 0 0 0
251 2 7 1.575 10.681178 8.759439999999998 74.458417 0 0 0
252 2 6 1.05 10.681178 10.879439999999999 72.33841699999998 0 0 0
144 2 7 1.575 2.2011779999999987 6.6394400000000005 76.578417 0 0 0
138 2 7 1.575 0.08117799999999864 4.5194399999999995 76.578417 0 0 0
143 0 8 -1.05 2.1643419999999987 4.556274999999999 76.615252 0 0 0
139 0 9 -0.975 0.17465313814477737 6.546684171397549 76.4724984782282 0 0 0
146 0 9 -0.975 4.1813035302926185 6.779548060904135 76.3956262036028 0 0 0
142 0 2 -0.123 1.2529254083467887 5.487408450475706 80.17973473121117 0 0 0
1168 0 1 0.731 5.332893213838028 1.3849157324945935 79.10088850487288 0 1 0
147 0 10 0.425 4.76351710670197 6.197189228161698 77.03887062831754 0 0 0
1169 0 2 -0.123 5.462284160380753 1.254646591877174 80.18386380939837 0 1 0
1015 0 8 -1.05 2.2380129999999987 0.24260500000000107 76.54158199999999 0 1 0
281 0 2 -0.123 5.4703415806124465 9.730163892014772 80.18245503834514 0 0 0
993 2 7 1.575 3.2611779999999992 3.459439999999997 75.51841699999999 0 1 0
1014 0 10 0.425 0.5236372194547414 1.9571161412983509 77.03885477015857 0 1 0
272 2 7 1.575 7.501178 7.69944 75.51841699999999 0 0 0
1166 2 7 1.575 4.321178 0.27943999999999747 76.578417 0 1 0
1172 2 7 1.575 6.441178000000001 2.3994399999999985 76.578417 0 1 0
1167 0 9 -0.975 4.414475383648259 2.306207632719222 76.47146517197848 0 1 0
1170 0 8 -1.05 6.404343000000001 0.3162749999999974 76.615252 0 1 0
1184 0 8 -1.05 6.478013000000001 4.4826049999999995 76.54158199999999 0 1 0
1171 0 3 -0.804 6.018352802785264 2.213499715859629 78.50919963618537 0 1 0
145 0 3 -0.804 1.790939552640339 6.4585236407016176 78.50736032003516 0 0 0
1164 0 10 0.425 4.21874307883788 2.501940739803023 77.48531776326081 0 1 0
292 2 7 1.575 10.681178 6.6394400000000005 76.578417 0 0 0
286 2 7 1.575 8.561177999999998 4.5194399999999995 76.578417 0 0 0
291 0 8 -1.05 10.644341999999998 4.556274999999999 76.615252 0 0 0
287 0 9 -0.975 8.654786950843633 6.546368435696003 76.4711352174824 0 0 0
293 0 3 -0.804 10.263904702604673 6.458150652624465 78.50785855599894 0 0 0
288 0 3 -0.804 8.748300851037515 4.946820365165213 78.50942163121027 0 0 0
285 0 10 0.425 8.458860347596827 6.741786896763097 77.48502272601738 0 0 0
1163 0 8 -1.05 10.718013 0.24260500000000107 76.54158199999999 0 1 0
1161 0 9 -0.975 8.420975258827395 2.539708329362888 76.39617027485916 0 1 0
1141 2 7 1.575 11.741178 3.459439999999997 75.51841699999999 0 1 0
1162 0 10 0.425 9.003453975477466 1.9571658158654341 77.03910079644994 0 1 0
280 0 1 0.731 5.336745223130517 9.863713945841962 79.10040662484336 0 0 0
127 0 8 -1.05 2.2380129999999987 8.722605 76.54158199999999 0 0 0
289 0 1 0.731 9.579213243320604 5.630084521448784 79.10040419739035 0 0 0
105 2 7 1.575 3.2611779999999992 11.93944 75.51841699999999 0 0 0
126 0 10 0.425 0.523399953873584 10.43720533932788 77.0389074268867 0 0 0
278 2 7 1.575 4.321178 8.759439999999998 76.578417 0 0 0
284 2 7 1.575 6.441178000000001 10.879439999999999 76.578417 0 0 0
279 0 9 -0.975 4.41431482289897 10.786191068962822 76.47180421294024 0 0 0
282 0 8 -1.05 6.404343000000001 8.796274999999998 76.615252 0 0 0
283 0 3 -0.804 6.019729465461359 10.69415860083259 78.50882279681255 0 0 0
277 0 3 -0.804 4.507071137055558 9.179903856481184 78.50873606891707 0 0 0
276 0 10 0.425 4.21847770179541 10.981691865178378 77.48568344752493 0 0 0
275 0 8 -1.05 10.718013 8.722605 76.54158199999999 0 0 0
273 0 9 -0.975 8.42099752628457 11.019548772050108 76.39583410587129 0 0 0
253 2 7 1.575 11.741178 11.93944 75.51841699999999 0 0 0
274 0 10 0.425 9.003460943146937 10.437127650136901 77.03885342075397 0 0 0
290 0 2 -0.123 9.712446405734726 5.498249809109613 80.1826860778528 0 0 0
1165 0 3 -0.804 4.504686882827003 0.7002424876834846 78.50845360895491 0 1 0
140 0 3 -0.804 0.2736481249608455 4.94876333152572 78.51066806429948 0 0 0
141 0 1 0.731 1.1096453316483446 5.627477875510098 79.0997432752771 0 0 0
1312 0 10 0.425 12.698908980121598 2.501840064795231 77.48579036502697 0 1 0
294 0 9 -0.975 12.661151153933686 6.779678458934196 76.39595672347558 0 0 0
424 0 10 0.425 12.698604179938387 10.981708975689136 77.48565336264255 0 0 0
613 0 1 0.731 3.3128183642154765 16.143172081512134 57.097965680571384 0 0 0
612 0 2 -0.123 3.168478840014122 16.286004245366428 56.018594622548235 0 0 0
1050 2 7 1.575 8.561177999999998 21.47944 59.618416999999994 0 0 0
1055 2 7 1.575 10.681178 23.59944 59.618416999999994 0 0 0
1057 0 1 0.731 3.3050419345127846 24.615052640617115 57.09859507203583 0 0 0
1056 0 2 -0.123 3.1559971721905917 24.76244096986149 56.020485050558335 0 0 0
1048 0 1 0.731 7.568647923616274 20.420253683190413 57.097010928098655 0 0 0
1047 0 2 -0.123 7.424664132677003 20.56245901882905 56.01764351678933 0 0 0
593 0 9 -0.975 8.473521439294581 19.456087437160427 59.71979237682466 0 0 0
1053 0 8 -1.05 10.644341999999998 21.516275 59.655252 0 0 0
459 0 9 -0.975 0.2225638560189079 14.979710122013461 59.80074642063809 0 0 0
461 0 8 -1.05 2.1643419999999987 13.036275 59.655252 0 0 0
463 2 7 1.575 2.2011779999999987 15.11944 59.618416999999994 0 0 0
458 2 7 1.575 0.08117799999999864 12.99944 59.618416999999994 0 0 0
466 0 9 -0.975 4.2305064542985304 15.21434373312969 59.72562777796371 0 0 0
595 0 8 -1.05 10.718013 17.202605 59.581582000000004 0 0 0
467 0 10 0.425 4.420059743439751 15.016521713857722 58.710881179146355 0 0 0
1051 0 9 -0.975 8.712225839855124 23.465356167801964 59.7877316964522 0 0 0
172 0 8 -1.05 6.478013000000001 12.962605 59.581582000000004 0 0 0
641 2 7 1.575 5.381178 14.05944 60.678416999999996 0 0 0
610 0 3 -0.804 2.6360961408540593 15.3068726139212 57.689050672043166 0 0 0
607 0 9 -0.975 8.712011438574438 14.986332191341301 59.788072544909966 0 0 0
609 0 8 -1.05 10.644341999999998 13.036275 59.655252 0 0 0
611 2 7 1.575 10.681178 15.11944 59.618416999999994 0 0 0
606 2 7 1.575 8.561177999999998 12.99944 59.618416999999994 0 0 0
594 0 10 0.425 8.667273532232922 19.25745214129335 58.70626945915843 0 0 0
605 0 10 0.425 8.106336726782327 15.565237817697676 59.16222059838873 0 0 0
620 2 7 1.575 9.621178 18.29944 60.678416999999996 0 0 0
472 2 7 1.575 1.1411779999999991 18.29944 60.678416999999996 0 0 0
447 0 8 -1.05 2.2380129999999987 17.202605 59.581582000000004 0 0 0
746 0 10 0.425 12.374428399179537 19.803425679053323 59.15036722804659 0 0 0
446 0 10 0.425 0.1813034712544212 19.257962050119872 58.712204468273804 0 0 0
903 0 9 -0.975 0.22230881898130145 23.459482173113933 59.800995240190446 0 0 0
905 0 8 -1.05 2.1643419999999987 21.516275 59.655252 0 0 0
907 2 7 1.575 2.2011779999999987 23.59944 59.618416999999994 0 0 0
902 2 7 1.575 0.08117799999999864 21.47944 59.618416999999994 0 0 0
910 0 9 -0.975 4.229176182411234 23.693102872290794 59.726545175678474 0 0 0
1049 0 10 0.425 8.10713205205546 24.046753953707306 59.16323349040727 0 0 0
911 0 10 0.425 4.419612655467749 23.498295438803396 58.71135589633201 0 0 0
1052 0 3 -0.804 8.388753119785656 21.117199568763763 57.6895965279689 0 0 0
600 0 8 -1.05 6.404343000000001 17.276275 59.655252 0 0 0
599 0 9 -0.975 4.463777543961077 19.219546704926262 59.79975439003091 0 0 0
601 2 7 1.575 6.441178000000001 19.35944 59.618416999999994 0 0 0
597 2 7 1.575 4.321178 17.23944 59.618416999999994 0 0 0
616 0 8 -1.05 6.478013000000001 21.442605 59.581582000000004 0 0 0
596 0 3 -0.804 4.146638035827996 16.823017124191797 57.68829944697015 0 0 0
598 0 10 0.425 3.8776067853281226 19.80124646341859 59.158946974626794 0 0 0
1085 2 7 1.575 5.381178 22.53944 60.678416999999996 0 0 0
1054 0 3 -0.804 2.628344756219795 23.77936058357948 57.68983637174984 0 0 0
1046 0 3 -0.804 6.903813857405288 19.570627103385416 57.68453267995163 0 0 0
1040 0 3 -0.804 4.143253591024428 25.29019275305072 57.688026014485196 0 0 0
614 0 9 -0.975 12.65078821257818 15.213999017834453 59.726373601721534 0 0 0
1058 0 9 -0.975 12.653106996606446 23.695333479206568 59.71510201544639 0 0 0
758 0 3 -0.804 12.538437169433127 15.048967185236897 57.30069947070638 0 0 0
1202 0 3 -0.804 12.579214020966607 23.599348341092153 57.2829348151703 0 0 0
46 0 8 -1.05 4.284343 12.962605 61.775251999999995 0 0 0
44 0 8 -1.05 2.2380129999999987 12.962605 63.82158199999999 0 0 0
485 0 8 -1.05 0.11801299999999859 13.036275 61.701581999999995 0 0 0
486 0 8 -1.05 2.1643419999999987 15.082605000000001 61.701581999999995 0 0 0
483 0 8 -1.05 0.04434299999999958 15.156275 63.82158199999999 0 0 0
487 2 7 1.575 2.2011779999999987 12.99944 61.73841699999999 0 0 0
484 2 7 1.575 0.08117799999999864 15.11944 61.73841699999999 0 0 0
489 1 7 1.575 3.2611779999999992 16.17944 62.798417 0 0 0
644 0 8 -1.05 6.478013000000001 15.156275 61.775251999999995 0 0 0
640 0 8 -1.05 4.358013 15.082605000000001 63.89525199999999 0 0 0
642 0 8 -1.05 6.404343000000001 13.036275 63.89525199999999 0 0 0
639 2 6 1.05 4.321178 12.99944 63.858416999999996 0 0 0
643 2 6 1.05 6.441178000000001 15.11944 63.858416999999996 0 0 0
192 0 8 -1.05 10.718013 12.962605 63.82158199999999 0 0 0
633 0 8 -1.05 8.598012999999998 13.036275 61.701581999999995 0 0 0
634 0 8 -1.05 10.644341999999998 15.082605000000001 61.701581999999995 0 0 0
631 0 8 -1.05 8.524343 15.156275 63.82158199999999 0 0 0
635 2 7 1.575 10.681178 12.99944 61.73841699999999 0 0 0
632 2 7 1.575 8.561177999999998 15.11944 61.73841699999999 0 0 0
637 1 7 1.575 11.741178 16.17944 62.798417 0 0 0
476 0 8 -1.05 4.284343 19.396275 63.82158199999999 0 0 0
473 0 8 -1.05 2.1643419999999987 17.276275 63.89525199999999 0 0 0
490 0 8 -1.05 4.284343 21.442605 61.775251999999995 0 0 0
488 0 8 -1.05 2.2380129999999987 21.442605 63.82158199999999 0 0 0
469 0 8 -1.05 0.04434299999999958 17.202605 61.775251999999995 0 0 0
475 0 8 -1.05 2.2380129999999987 19.396275 61.775251999999995 0 0 0
471 0 8 -1.05 0.11801299999999859 19.322604 63.89525199999999 0 0 0
470 2 6 1.05 0.08117799999999864 17.23944 63.858416999999996 0 0 0
474 2 6 1.05 2.2011779999999987 19.35944 63.858416999999996 0 0 0
929 0 8 -1.05 0.11801299999999859 21.516275 61.701581999999995 0 0 0
930 0 8 -1.05 2.1643419999999987 23.562605 61.701581999999995 0 0 0
927 0 8 -1.05 0.04434299999999958 23.636275 63.82158199999999 0 0 0
931 2 7 1.575 2.2011779999999987 21.47944 61.73841699999999 0 0 0
928 2 7 1.575 0.08117799999999864 23.59944 61.73841699999999 0 0 0
933 1 7 1.575 3.2611779999999992 24.65944 62.798417 0 0 0