LAMMPS data file via write_data, version 29 Sep 2021, timestep = 1764858

4230 atoms
10 atom types
72 bonds
6 bond types
108 angles
6 angle types
0 dihedrals
2 dihedral types
18 impropers
2 improper types

0.239999 25.679999000000002 xlo xhi
0.239999 25.679999000000002 ylo yhi
-32.391176 66.805898 zlo zhi

Masses

1 12.011
2 1.008
3 15.9994
4 15.9994
5 1.008
6 55.845
7 55.845
8 15.9994
9 15.9994
10 1.008

Pair Coeffs # lj/cut/coul/long

1 0.0988 3.31521
2 0.0161 2.4473
3 0.1463 3.04812
4 0.093 3.24287
5 0.0047 0.537925
6 9.0298e-07 4.9062
7 9.0298e-07 4.9062
8 0.1554 3.16554
9 0.1554 3.16554
10 0 0

Bond Coeffs # harmonic

1 361.8 1.105
2 652.57 1.218
3 383.13 1.351
4 563.51 0.973
5 554.135 1
6 0 2.08

Angle Coeffs # harmonic

1 51.617 106.55
2 65.93 123.65
3 65.262 109.49
4 115.745 122.1
5 118.817 130.25
6 30 109.47

Dihedral Coeffs # fourier

1 1 2.3 2 180
2 2 2.3 2 180 1.9 1 0

Improper Coeffs # cvff

1 10.5 -1 2
2 10.5 -1 2

Atoms # full

25 0 8 -1.05 2.415252 8.701582 -16.74947126245 0 0 0
33 0 8 -1.05 8.701582 2.415252 -16.74947126245 0 0 0
45 0 8 -1.05 4.461582 6.655252 -16.74947126245 0 0 0
54 0 8 -1.05 6.655252 4.461582 -16.74947126245 0 0 0
57 1 7 1.575 1.318417 1.318417 -15.652636262450002 0 0 0
63 1 6 1.575 5.558417 5.558417 -15.652636262450002 0 0 0
65 2 7 1.575 4.498417 0.258417 -16.712636262450005 0 0 0
69 2 7 1.575 2.378417 4.498417 -14.592636262450007 0 0 0
70 2 7 1.575 0.258417 6.618417 -14.592636262450007 0 0 0
72 2 7 1.575 0.258417 4.498417 -16.712636262450005 0 0 0
73 2 7 1.575 4.498417 2.378417 -14.592636262450007 0 0 0
76 2 7 1.575 6.618417 0.258417 -14.592636262450007 0 0 0
78 2 7 1.575 6.618417 2.378417 -16.712636262450005 0 0 0
79 2 7 1.575 2.378417 6.618417 -16.712636262450005 0 0 0
82 0 8 -1.05 6.581581 0.295252 -16.67580126245 0 0 0
86 0 8 -1.05 0.295252 4.535252 -14.629471262450004 0 0 0
87 0 8 -1.05 6.655252 6.655252 -14.555801262450004 0 0 0
90 0 8 -1.05 0.295252 6.581581 -16.67580126245 0 0 0
91 0 8 -1.05 4.461582 4.461582 -14.555801262450004 0 0 0
96 0 8 -1.05 6.581581 2.341582 -14.629471262450004 0 0 0
97 0 8 -1.05 8.701582 8.701582 -14.555801262450004 0 0 0
102 0 8 -1.05 4.535252 2.341582 -16.67580126245 0 0 0
104 0 8 -1.05 2.341582 6.581581 -14.629471262450004 0 0 0
105 0 8 -1.05 4.535252 0.295252 -14.629471262450004 0 0 0
109 0 9 -1 2.214374219565405 4.6177526600240295 -16.509196891609943 0 0 0
111 0 8 -1.05 2.415252 2.415252 -14.555801262450004 0 0 0
466 0 1 0.731 3.4324880468785546 7.650349470118389 -19.263804109530927 0 0 0
467 0 2 -0.123 3.4182720980710726 7.669816430264238 -20.364958858747094 0 0 0
468 0 3 -0.804 4.1763296331210285 8.452736871108257 -18.692057769363466 0 0 0
469 0 3 -0.804 2.7047121270268843 6.828158339893706 -18.688455172541435 0 0 0
470 0 10 0.425 2.816292695514738 4.048540315928646 -17.155980739172318 0 0 0
60 1 6 1.575 3.438417 7.678417 -13.532636262450005 0 0 0
62 1 7 1.575 7.678417 3.438417 -13.532636262450005 0 0 0
1443 0 8 -1.05 8.701582 10.895252000000001 -16.74947126245 0 0 0
1464 0 8 -1.05 6.655252 12.941582 -16.74947126245 0 0 0
1467 1 7 1.575 1.318417 9.798417 -15.652636262450002 0 0 0
1475 2 7 1.575 4.498417 8.738417 -16.712636262450005 0 0 0
1483 2 7 1.575 4.498417 10.858417 -14.592636262450007 0 0 0
1486 2 7 1.575 6.618417 8.738417 -14.592636262450007 0 0 0
1488 2 7 1.575 6.618417 10.858417 -16.712636262450005 0 0 0
1492 0 8 -1.05 6.581581 8.775252 -16.67580126245 0 0 0
1501 0 8 -1.05 4.461582 12.941582 -14.555801262450004 0 0 0
1506 0 8 -1.05 6.581581 10.821582 -14.629471262450004 0 0 0
1512 0 8 -1.05 4.535252 10.821582 -16.67580126245 0 0 0
1515 0 8 -1.05 4.535252 8.775252 -14.629471262450004 0 0 0
1521 0 8 -1.05 2.415252 10.895252000000001 -14.555801262450004 0 0 0
1880 0 10 0.425 2.8153569402377197 12.527805359395776 -17.15575289382927 0 0 0
1472 1 7 1.575 7.678417 11.918417 -13.532636262450005 0 0 0
938 0 3 -0.804 12.656104958546745 8.453193588085961 -18.692447972935778 0 0 0
495 0 8 -1.05 10.895252000000001 8.701582 -16.74947126245 0 0 0
515 0 8 -1.05 12.941582 6.655252 -16.74947126245 0 0 0
527 1 7 1.575 9.798417 1.318417 -15.652636262450002 0 0 0
539 2 7 1.575 10.858417 4.498417 -14.592636262450007 0 0 0
540 2 7 1.575 8.738417 6.618417 -14.592636262450007 0 0 0
542 2 7 1.575 8.738417 4.498417 -16.712636262450005 0 0 0
549 2 7 1.575 10.858417 6.618417 -16.712636262450005 0 0 0
556 0 8 -1.05 8.775252 4.535252 -14.629471262450004 0 0 0
560 0 8 -1.05 8.775252 6.581581 -16.67580126245 0 0 0
561 0 8 -1.05 12.941582 4.461582 -14.555801262450004 0 0 0
574 0 8 -1.05 10.821582 6.581581 -14.629471262450004 0 0 0
579 0 9 -1 10.695238404944117 4.618964949173054 -16.510555131016815 0 0 0
581 0 8 -1.05 10.895252000000001 2.415252 -14.555801262450004 0 0 0
936 0 1 0.731 11.91266175826844 7.6506920831713705 -19.263813561075608 0 0 0
937 0 2 -0.123 11.898403744314106 7.669774604865904 -20.36500301529319 0 0 0
939 0 3 -0.804 11.184517701897219 6.828443879740431 -18.689022398298007 0 0 0
940 0 10 0.425 11.29647449788123 4.047977442337335 -17.156031167454735 0 0 0
530 1 6 1.575 11.918417 7.678417 -13.532636262450005 0 0 0
1937 1 7 1.575 9.798417 9.798417 -15.652636262450002 0 0 0
1971 0 8 -1.05 12.941582 12.941582 -14.555801262450004 0 0 0
1991 0 8 -1.05 10.895252000000001 10.895252000000001 -14.555801262450004 0 0 0
2350 0 10 0.425 11.296373223219769 12.529029177369228 -17.155056202392622 0 0 0
58 1 6 1.575 7.678417 7.678417 -9.292636262450003 0 0 0
59 1 7 1.575 5.558417 1.318417 -11.41263626245 0 0 0
61 1 7 1.575 1.318417 5.558417 -11.41263626245 0 0 0
64 1 7 1.575 3.438417 3.438417 -9.292636262450003 0 0 0
66 2 7 1.575 2.378417 2.378417 -12.472636262450003 0 0 0
67 2 7 1.575 6.618417 6.618417 -12.472636262450003 0 0 0
68 2 6 1.05 6.618417 4.498417 -10.352636262450005 0 0 0
71 2 6 1.05 0.258417 2.378417 -10.352636262450005 0 0 0
74 2 7 1.575 4.498417 6.618417 -10.352636262450005 0 0 0
75 2 7 1.575 2.378417 0.258417 -10.352636262450005 0 0 0
77 2 6 1.05 0.258417 0.258417 -12.472636262450003 0 0 0
80 2 6 1.05 4.498417 4.498417 -12.472636262450003 0 0 0
81 0 8 -1.05 2.415252 8.701582 -8.269472262450002 0 0 0
83 0 8 -1.05 4.461582 2.415252 -12.509471262449999 0 0 0
84 0 8 -1.05 4.535252 6.581581 -12.435801262450006 0 0 0
85 0 8 -1.05 8.701582 4.461582 -10.315801262450002 0 0 0
88 0 8 -1.05 2.341582 2.341582 -10.389472262450006 0 0 0
89 0 8 -1.05 8.701582 2.415252 -8.269472262450002 0 0 0
92 0 8 -1.05 4.535252 4.535252 -10.389472262450006 0 0 0
93 0 8 -1.05 6.655252 8.701582 -12.509471262449999 0 0 0
94 0 8 -1.05 2.341582 0.295252 -12.435801262450006 0 0 0
95 0 8 -1.05 2.415252 6.655252 -10.315801262450002 0 0 0
98 0 8 -1.05 0.295252 0.295252 -10.389472262450006 0 0 0
99 0 8 -1.05 2.415252 4.461582 -12.509471262449999 0 0 0
100 0 8 -1.05 6.581581 4.535252 -12.435801262450006 0 0 0
101 0 8 -1.05 4.461582 6.655252 -8.269472262450002 0 0 0
103 0 8 -1.05 6.655252 2.415252 -10.315801262450002 0 0 0
106 0 8 -1.05 4.461582 8.701582 -10.315801262450002 0 0 0
107 0 8 -1.05 0.295252 2.341582 -12.435801262450006 0 0 0
108 0 8 -1.05 8.701582 6.655252 -12.509471262449999 0 0 0
110 0 8 -1.05 6.655252 4.461582 -8.269472262450002 0 0 0
112 0 8 -1.05 6.581581 6.581581 -10.389472262450006 0 0 0
113 1 7 1.575 1.318417 1.318417 -7.172635262450008 0 0 0
119 1 7 1.575 5.558417 5.558417 -7.172635262450008 0 0 0
121 2 7 1.575 4.498417 0.258417 -8.232637262450005 0 0 0
128 2 6 1.05 0.258417 4.498417 -8.232637262450005 0 0 0
134 2 7 1.575 6.618417 2.378417 -8.232637262450005 0 0 0
135 2 7 1.575 2.378417 6.618417 -8.232637262450005 0 0 0
138 0 8 -1.05 6.581581 0.295252 -8.19580026245 0 0 0
146 0 8 -1.05 0.295252 6.581581 -8.19580026245 0 0 0
158 0 8 -1.05 4.535252 2.341582 -8.19580026245 0 0 0
165 0 8 -1.05 2.341582 4.535252 -8.19580026245 0 0 0
115 1 6 1.575 5.558417 1.318417 -2.9326362624500035 0 0 0
116 1 7 1.575 3.438417 7.678417 -5.052636262450001 0 0 0
117 1 6 1.575 1.318417 5.558417 -2.9326362624500035 0 0 0
118 1 7 1.575 7.678417 3.438417 -5.052636262450001 0 0 0
122 2 7 1.575 2.378417 2.378417 -3.992635262450001 0 0 0
123 2 7 1.575 6.618417 6.618417 -3.992635262450001 0 0 0
125 2 6 1.05 2.378417 4.498417 -6.112636262450003 0 0 0
126 2 6 1.05 0.258417 6.618417 -6.112636262450003 0 0 0
129 2 6 1.05 4.498417 2.378417 -6.112636262450003 0 0 0
132 2 6 1.05 6.618417 0.258417 -6.112636262450003 0 0 0
133 2 7 1.575 0.258417 0.258417 -3.992635262450001 0 0 0
136 2 7 1.575 4.498417 4.498417 -3.992635262450001 0 0 0
139 0 8 -1.05 4.461582 2.415252 -4.029472262450007 0 0 0
140 0 8 -1.05 4.535252 6.581581 -3.955800262450005 0 0 0
142 0 8 -1.05 0.295252 4.535252 -6.14947126245 0 0 0
143 0 8 -1.05 6.655252 6.655252 -6.075801262450007 0 0 0
147 0 8 -1.05 4.461582 4.461582 -6.075801262450007 0 0 0
149 0 8 -1.05 6.655252 8.701582 -4.029472262450007 0 0 0
150 0 8 -1.05 2.341582 0.295252 -3.955800262450005 0 0 0
152 0 8 -1.05 6.581581 2.341582 -6.14947126245 0 0 0
153 0 8 -1.05 8.701582 8.701582 -6.075801262450007 0 0 0
155 0 8 -1.05 2.415252 4.461582 -4.029472262450007 0 0 0
156 0 8 -1.05 6.581581 4.535252 -3.955800262450005 0 0 0
160 0 8 -1.05 2.341582 6.581581 -6.14947126245 0 0 0
161 0 8 -1.05 4.535252 0.295252 -6.14947126245 0 0 0
163 0 8 -1.05 0.295252 2.341582 -3.955800262450005 0 0 0
164 0 8 -1.05 8.701582 6.655252 -4.029472262450007 0 0 0
167 0 8 -1.05 2.415252 2.415252 -6.075801262450007 0 0 0
1469 1 7 1.575 5.558417 9.798417 -11.41263626245 0 0 0
1474 1 7 1.575 3.438417 11.918417 -9.292636262450003 0 0 0
1476 2 6 1.05 2.378417 10.858417 -12.472636262450003 0 0 0
1481 2 6 1.05 0.258417 10.858417 -10.352636262450005 0 0 0
1485 2 6 1.05 2.378417 8.738417 -10.352636262450005 0 0 0
1487 2 7 1.575 0.258417 8.738417 -12.472636262450003 0 0 0
1493 0 8 -1.05 4.461582 10.895252000000001 -12.509471262449999 0 0 0
1495 0 8 -1.05 8.701582 12.941582 -10.315801262450002 0 0 0
1498 0 8 -1.05 2.341582 10.821582 -10.389472262450006 0 0 0
1499 0 8 -1.05 8.701582 10.895252000000001 -8.269472262450002 0 0 0
1504 0 8 -1.05 2.341582 8.775252 -12.435801262450006 0 0 0
1508 0 8 -1.05 0.295252 8.775252 -10.389472262450006 0 0 0
1509 0 8 -1.05 2.415252 12.941582 -12.509471262449999 0 0 0
1513 0 8 -1.05 6.655252 10.895252000000001 -10.315801262450002 0 0 0
1517 0 8 -1.05 0.295252 10.821582 -12.435801262450006 0 0 0
1520 0 8 -1.05 6.655252 12.941582 -8.269472262450002 0 0 0
1523 1 7 1.575 1.318417 9.798417 -7.172635262450008 0 0 0
1531 2 7 1.575 4.498417 8.738417 -8.232637262450005 0 0 0
1544 2 6 1.05 6.618417 10.858417 -8.232637262450005 0 0 0
1548 0 8 -1.05 6.581581 8.775252 -8.19580026245 0 0 0
1568 0 8 -1.05 4.535252 10.821582 -8.19580026245 0 0 0
1525 1 6 1.575 5.558417 9.798417 -2.9326362624500035 0 0 0
1528 1 7 1.575 7.678417 11.918417 -5.052636262450001 0 0 0
1532 2 7 1.575 2.378417 10.858417 -3.992635262450001 0 0 0
1539 2 6 1.05 4.498417 10.858417 -6.112636262450003 0 0 0
1542 2 6 1.05 6.618417 8.738417 -6.112636262450003 0 0 0
1543 2 7 1.575 0.258417 8.738417 -3.992635262450001 0 0 0
1549 0 8 -1.05 4.461582 10.895252000000001 -4.029472262450007 0 0 0
1557 0 8 -1.05 4.461582 12.941582 -6.075801262450007 0 0 0
1560 0 8 -1.05 2.341582 8.775252 -3.955800262450005 0 0 0
1562 0 8 -1.05 6.581581 10.821582 -6.14947126245 0 0 0
1565 0 8 -1.05 2.415252 12.941582 -4.029472262450007 0 0 0
1571 0 8 -1.05 4.535252 8.775252 -6.14947126245 0 0 0
1573 0 8 -1.05 0.295252 10.821582 -3.955800262450005 0 0 0
1577 0 8 -1.05 2.415252 10.895252000000001 -6.075801262450007 0 0 0
531 1 7 1.575 9.798417 5.558417 -11.41263626245 0 0 0
534 1 7 1.575 11.918417 3.438417 -9.292636262450003 0 0 0
536 2 6 1.05 10.858417 2.378417 -12.472636262450003 0 0 0
541 2 6 1.05 8.738417 2.378417 -10.352636262450005 0 0 0
545 2 7 1.575 10.858417 0.258417 -10.352636262450005 0 0 0
547 2 7 1.575 8.738417 0.258417 -12.472636262450003 0 0 0
551 0 8 -1.05 10.895252000000001 8.701582 -8.269472262450002 0 0 0
553 0 8 -1.05 12.941582 2.415252 -12.509471262449999 0 0 0
558 0 8 -1.05 10.821582 2.341582 -10.389472262450006 0 0 0
564 0 8 -1.05 10.821582 0.295252 -12.435801262450006 0 0 0
565 0 8 -1.05 10.895252000000001 6.655252 -10.315801262450002 0 0 0
568 0 8 -1.05 8.775252 0.295252 -10.389472262450006 0 0 0
569 0 8 -1.05 10.895252000000001 4.461582 -12.509471262449999 0 0 0
571 0 8 -1.05 12.941582 6.655252 -8.269472262450002 0 0 0
576 0 8 -1.05 12.941582 8.701582 -10.315801262450002 0 0 0
577 0 8 -1.05 8.775252 2.341582 -12.435801262450006 0 0 0
583 1 7 1.575 9.798417 1.318417 -7.172635262450008 0 0 0
598 2 7 1.575 8.738417 4.498417 -8.232637262450005 0 0 0
605 2 7 1.575 10.858417 6.618417 -8.232637262450005 0 0 0
616 0 8 -1.05 8.775252 6.581581 -8.19580026245 0 0 0
635 0 8 -1.05 10.821582 4.535252 -8.19580026245 0 0 0
586 1 7 1.575 11.918417 7.678417 -5.052636262450001 0 0 0
587 1 6 1.575 9.798417 5.558417 -2.9326362624500035 0 0 0
592 2 7 1.575 10.858417 2.378417 -3.992635262450001 0 0 0
595 2 6 1.05 10.858417 4.498417 -6.112636262450003 0 0 0
596 2 6 1.05 8.738417 6.618417 -6.112636262450003 0 0 0
603 2 7 1.575 8.738417 0.258417 -3.992635262450001 0 0 0
609 0 8 -1.05 12.941582 2.415252 -4.029472262450007 0 0 0
612 0 8 -1.05 8.775252 4.535252 -6.14947126245 0 0 0
617 0 8 -1.05 12.941582 4.461582 -6.075801262450007 0 0 0
620 0 8 -1.05 10.821582 0.295252 -3.955800262450005 0 0 0
625 0 8 -1.05 10.895252000000001 4.461582 -4.029472262450007 0 0 0
630 0 8 -1.05 10.821582 6.581581 -6.14947126245 0 0 0
633 0 8 -1.05 8.775252 2.341582 -3.955800262450005 0 0 0
637 0 8 -1.05 10.895252000000001 2.415252 -6.075801262450007 0 0 0
1944 1 7 1.575 11.918417 11.918417 -9.292636262450003 0 0 0
1946 2 7 1.575 10.858417 10.858417 -12.472636262450003 0 0 0
1951 2 7 1.575 8.738417 10.858417 -10.352636262450005 0 0 0
1955 2 6 1.05 10.858417 8.738417 -10.352636262450005 0 0 0
1957 2 6 1.05 8.738417 8.738417 -12.472636262450003 0 0 0
1963 0 8 -1.05 12.941582 10.895252000000001 -12.509471262449999 0 0 0
1968 0 8 -1.05 10.821582 10.821582 -10.389472262450006 0 0 0
1974 0 8 -1.05 10.821582 8.775252 -12.435801262450006 0 0 0
1978 0 8 -1.05 8.775252 8.775252 -10.389472262450006 0 0 0
1979 0 8 -1.05 10.895252000000001 12.941582 -12.509471262449999 0 0 0
1987 0 8 -1.05 8.775252 10.821582 -12.435801262450006 0 0 0
1993 1 7 1.575 9.798417 9.798417 -7.172635262450008 0 0 0
2002 2 7 1.575 10.858417 10.858417 -3.992635262450001 0 0 0
2013 2 7 1.575 8.738417 8.738417 -3.992635262450001 0 0 0
2019 0 8 -1.05 12.941582 10.895252000000001 -4.029472262450007 0 0 0
2027 0 8 -1.05 12.941582 12.941582 -6.075801262450007 0 0 0
2030 0 8 -1.05 10.821582 8.775252 -3.955800262450005 0 0 0
2035 0 8 -1.05 10.895252000000001 12.941582 -4.029472262450007 0 0 0
2043 0 8 -1.05 8.775252 10.821582 -3.955800262450005 0 0 0
2047 0 8 -1.05 10.895252000000001 10.895252000000001 -6.075801262450007 0 0 0
114 1 6 1.575 7.678417 7.678417 -0.8126372624500036 0 0 0
120 1 7 1.575 3.438417 3.438417 -0.8126372624500036 0 0 0
124 2 6 1.05 6.618417 4.498417 -1.8726362624500013 0 0 0
127 2 6 1.05 0.258417 2.378417 -1.8726362624500013 0 0 0
130 2 6 1.05 4.498417 6.618417 -1.8726362624500013 0 0 0
131 2 6 1.05 2.378417 0.258417 -1.8726362624500013 0 0 0
141 0 8 -1.05 8.701582 4.461582 -1.8358012624499978 0 0 0
144 0 8 -1.05 2.341582 2.341582 -1.9094732624499997 0 0 0
148 0 8 -1.05 4.535252 4.535252 -1.9094732624499997 0 0 0
151 0 8 -1.05 2.415252 6.655252 -1.8358012624499978 0 0 0
154 0 8 -1.05 0.295252 0.295252 -1.9094732624499997 0 0 0
159 0 8 -1.05 6.655252 2.415252 -1.8358012624499978 0 0 0
162 0 8 -1.05 4.461582 8.701582 -1.8358012624499978 0 0 0
168 0 8 -1.05 6.581581 6.581581 -1.9094732624499997 0 0 0
137 0 8 -1.05 2.415252 8.701582 0.21052973754999726 0 0 0
145 0 8 -1.05 8.701582 2.415252 0.21052973754999726 0 0 0
157 0 8 -1.05 4.461582 6.655252 0.21052973754999726 0 0 0
166 0 8 -1.05 6.655252 4.461582 0.21052973754999726 0 0 0
169 1 6 1.575 1.318417 1.318417 1.3073637375499985 0 0 0
171 1 6 1.575 5.558417 1.318417 5.547363737549997 0 0 0
172 1 7 1.575 3.438417 7.678417 3.4273627375499984 0 0 0
173 1 7 1.575 1.318417 5.558417 5.547363737549997 0 0 0
174 1 7 1.575 7.678417 3.438417 3.4273627375499984 0 0 0
175 1 6 1.575 5.558417 5.558417 1.3073637375499985 0 0 0
177 2 7 1.575 4.498417 0.258417 0.24736473754999366 0 0 0
178 2 7 1.575 2.378417 2.378417 4.487363737549998 0 0 0
179 2 7 1.575 6.618417 6.618417 4.487363737549998 0 0 0
180 2 6 1.05 6.618417 4.498417 6.60736473755 0 0 0
181 2 6 1.05 2.378417 4.498417 2.367363737549997 0 0 0
182 2 6 1.05 0.258417 6.618417 2.367363737549997 0 0 0
183 2 6 1.05 0.258417 2.378417 6.60736473755 0 0 0
184 2 7 1.575 0.258417 4.498417 0.24736473754999366 0 0 0
185 2 6 1.05 4.498417 2.378417 2.367363737549997 0 0 0
186 2 6 1.05 4.498417 6.618417 6.60736473755 0 0 0
187 2 6 1.05 2.378417 0.258417 6.60736473755 0 0 0
188 2 6 1.05 6.618417 0.258417 2.367363737549997 0 0 0
189 2 7 1.575 0.258417 0.258417 4.487363737549998 0 0 0
190 2 7 1.575 6.618417 2.378417 0.24736473754999366 0 0 0
191 2 7 1.575 2.378417 6.618417 0.24736473754999366 0 0 0
192 2 7 1.575 4.498417 4.498417 4.487363737549998 0 0 0
194 0 8 -1.05 6.581581 0.295252 0.2841987375499926 0 0 0
195 0 8 -1.05 4.461582 2.415252 4.450529737549996 0 0 0
196 0 8 -1.05 4.535252 6.581581 4.524198737549998 0 0 0
197 0 8 -1.05 8.701582 4.461582 6.644199737549997 0 0 0
198 0 8 -1.05 0.295252 4.535252 2.3305287375499972 0 0 0
199 0 8 -1.05 6.655252 6.655252 2.404197737549996 0 0 0
200 0 8 -1.05 2.341582 2.341582 6.570526737549997 0 0 0
202 0 8 -1.05 0.295252 6.581581 0.2841987375499926 0 0 0
203 0 8 -1.05 4.461582 4.461582 2.404197737549996 0 0 0
204 0 8 -1.05 4.535252 4.535252 6.570526737549997 0 0 0
205 0 8 -1.05 6.655252 8.701582 4.450529737549996 0 0 0
206 0 8 -1.05 2.341582 0.295252 4.524198737549998 0 0 0
207 0 8 -1.05 2.415252 6.655252 6.644199737549997 0 0 0
208 0 8 -1.05 6.581581 2.341582 2.3305287375499972 0 0 0
209 0 8 -1.05 8.701582 8.701582 2.404197737549996 0 0 0
210 0 8 -1.05 0.295252 0.295252 6.570526737549997 0 0 0
211 0 8 -1.05 2.415252 4.461582 4.450529737549996 0 0 0
212 0 8 -1.05 6.581581 4.535252 4.524198737549998 0 0 0
214 0 8 -1.05 4.535252 2.341582 0.2841987375499926 0 0 0
215 0 8 -1.05 6.655252 2.415252 6.644199737549997 0 0 0
216 0 8 -1.05 2.341582 6.581581 2.3305287375499972 0 0 0
217 0 8 -1.05 4.535252 0.295252 2.3305287375499972 0 0 0
218 0 8 -1.05 4.461582 8.701582 6.644199737549997 0 0 0
219 0 8 -1.05 0.295252 2.341582 4.524198737549998 0 0 0
220 0 8 -1.05 8.701582 6.655252 4.450529737549996 0 0 0
221 0 8 -1.05 2.341582 4.535252 0.2841987375499926 0 0 0
223 0 8 -1.05 2.415252 2.415252 2.404197737549996 0 0 0
224 0 8 -1.05 6.581581 6.581581 6.570526737549997 0 0 0
1530 1 7 1.575 3.438417 11.918417 -0.8126372624500036 0 0 0
1537 2 6 1.05 0.258417 10.858417 -1.8726362624500013 0 0 0
1541 2 6 1.05 2.378417 8.738417 -1.8726362624500013 0 0 0
1551 0 8 -1.05 8.701582 12.941582 -1.8358012624499978 0 0 0
1554 0 8 -1.05 2.341582 10.821582 -1.9094732624499997 0 0 0
1564 0 8 -1.05 0.295252 8.775252 -1.9094732624499997 0 0 0
1569 0 8 -1.05 6.655252 10.895252000000001 -1.8358012624499978 0 0 0
1555 0 8 -1.05 8.701582 10.895252000000001 0.21052973754999726 0 0 0
1576 0 8 -1.05 6.655252 12.941582 0.21052973754999726 0 0 0
1579 1 6 1.575 1.318417 9.798417 1.3073637375499985 0 0 0
1581 1 6 1.575 5.558417 9.798417 5.547363737549997 0 0 0
1584 1 7 1.575 7.678417 11.918417 3.4273627375499984 0 0 0
1587 2 7 1.575 4.498417 8.738417 0.24736473754999366 0 0 0
1588 2 7 1.575 2.378417 10.858417 4.487363737549998 0 0 0
1593 2 6 1.05 0.258417 10.858417 6.60736473755 0 0 0
1595 2 6 1.05 4.498417 10.858417 2.367363737549997 0 0 0
1597 2 6 1.05 2.378417 8.738417 6.60736473755 0 0 0
1598 2 6 1.05 6.618417 8.738417 2.367363737549997 0 0 0
1599 2 7 1.575 0.258417 8.738417 4.487363737549998 0 0 0
1600 2 7 1.575 6.618417 10.858417 0.24736473754999366 0 0 0
1604 0 8 -1.05 6.581581 8.775252 0.2841987375499926 0 0 0
1605 0 8 -1.05 4.461582 10.895252000000001 4.450529737549996 0 0 0
1607 0 8 -1.05 8.701582 12.941582 6.644199737549997 0 0 0
1610 0 8 -1.05 2.341582 10.821582 6.570526737549997 0 0 0
1613 0 8 -1.05 4.461582 12.941582 2.404197737549996 0 0 0
1616 0 8 -1.05 2.341582 8.775252 4.524198737549998 0 0 0
1618 0 8 -1.05 6.581581 10.821582 2.3305287375499972 0 0 0
1620 0 8 -1.05 0.295252 8.775252 6.570526737549997 0 0 0
1621 0 8 -1.05 2.415252 12.941582 4.450529737549996 0 0 0
1624 0 8 -1.05 4.535252 10.821582 0.2841987375499926 0 0 0
1625 0 8 -1.05 6.655252 10.895252000000001 6.644199737549997 0 0 0
1627 0 8 -1.05 4.535252 8.775252 2.3305287375499972 0 0 0
1629 0 8 -1.05 0.295252 10.821582 4.524198737549998 0 0 0
1633 0 8 -1.05 2.415252 10.895252000000001 2.404197737549996 0 0 0
590 1 7 1.575 11.918417 3.438417 -0.8126372624500036 0 0 0
597 2 6 1.05 8.738417 2.378417 -1.8726362624500013 0 0 0
601 2 6 1.05 10.858417 0.258417 -1.8726362624500013 0 0 0
614 0 8 -1.05 10.821582 2.341582 -1.9094732624499997 0 0 0
621 0 8 -1.05 10.895252000000001 6.655252 -1.8358012624499978 0 0 0
624 0 8 -1.05 8.775252 0.295252 -1.9094732624499997 0 0 0
632 0 8 -1.05 12.941582 8.701582 -1.8358012624499978 0 0 0
607 0 8 -1.05 10.895252000000001 8.701582 0.21052973754999726 0 0 0
627 0 8 -1.05 12.941582 6.655252 0.21052973754999726 0 0 0
639 1 6 1.575 9.798417 1.318417 1.3073637375499985 0 0 0
642 1 7 1.575 11.918417 7.678417 3.4273627375499984 0 0 0
643 1 7 1.575 9.798417 5.558417 5.547363737549997 0 0 0
648 2 7 1.575 10.858417 2.378417 4.487363737549998 0 0 0
651 2 6 1.05 10.858417 4.498417 2.367363737549997 0 0 0
652 2 6 1.05 8.738417 6.618417 2.367363737549997 0 0 0
653 2 6 1.05 8.738417 2.378417 6.60736473755 0 0 0
654 2 7 1.575 8.738417 4.498417 0.24736473754999366 0 0 0
657 2 6 1.05 10.858417 0.258417 6.60736473755 0 0 0
659 2 7 1.575 8.738417 0.258417 4.487363737549998 0 0 0
661 2 7 1.575 10.858417 6.618417 0.24736473754999366 0 0 0
665 0 8 -1.05 12.941582 2.415252 4.450529737549996 0 0 0
668 0 8 -1.05 8.775252 4.535252 2.3305287375499972 0 0 0
670 0 8 -1.05 10.821582 2.341582 6.570526737549997 0 0 0
672 0 8 -1.05 8.775252 6.581581 0.2841987375499926 0 0 0
673 0 8 -1.05 12.941582 4.461582 2.404197737549996 0 0 0
676 0 8 -1.05 10.821582 0.295252 4.524198737549998 0 0 0
677 0 8 -1.05 10.895252000000001 6.655252 6.644199737549997 0 0 0
680 0 8 -1.05 8.775252 0.295252 6.570526737549997 0 0 0
681 0 8 -1.05 10.895252000000001 4.461582 4.450529737549996 0 0 0
686 0 8 -1.05 10.821582 6.581581 2.3305287375499972 0 0 0
688 0 8 -1.05 12.941582 8.701582 6.644199737549997 0 0 0
689 0 8 -1.05 8.775252 2.341582 4.524198737549998 0 0 0
691 0 8 -1.05 10.821582 4.535252 0.2841987375499926 0 0 0
693 0 8 -1.05 10.895252000000001 2.415252 2.404197737549996 0 0 0
2000 1 7 1.575 11.918417 11.918417 -0.8126372624500036 0 0 0
2007 2 6 1.05 8.738417 10.858417 -1.8726362624500013 0 0 0
2011 2 6 1.05 10.858417 8.738417 -1.8726362624500013 0 0 0
2024 0 8 -1.05 10.821582 10.821582 -1.9094732624499997 0 0 0
2034 0 8 -1.05 8.775252 8.775252 -1.9094732624499997 0 0 0
2049 1 6 1.575 9.798417 9.798417 1.3073637375499985 0 0 0
2058 2 7 1.575 10.858417 10.858417 4.487363737549998 0 0 0
2063 2 6 1.05 8.738417 10.858417 6.60736473755 0 0 0
2067 2 6 1.05 10.858417 8.738417 6.60736473755 0 0 0
2069 2 7 1.575 8.738417 8.738417 4.487363737549998 0 0 0
2075 0 8 -1.05 12.941582 10.895252000000001 4.450529737549996 0 0 0
2080 0 8 -1.05 10.821582 10.821582 6.570526737549997 0 0 0
2083 0 8 -1.05 12.941582 12.941582 2.404197737549996 0 0 0
2086 0 8 -1.05 10.821582 8.775252 4.524198737549998 0 0 0
2090 0 8 -1.05 8.775252 8.775252 6.570526737549997 0 0 0
2091 0 8 -1.05 10.895252000000001 12.941582 4.450529737549996 0 0 0
2099 0 8 -1.05 8.775252 10.821582 4.524198737549998 0 0 0
2103 0 8 -1.05 10.895252000000001 10.895252000000001 2.404197737549996 0 0 0
170 1 7 1.575 7.678417 7.678417 7.66736273755 0 0 0
176 1 7 1.575 3.438417 3.438417 7.66736273755 0 0 0
193 0 8 -1.05 2.415252 8.701582 8.690528737549997 0 0 0
201 0 8 -1.05 8.701582 2.415252 8.690528737549997 0 0 0
213 0 8 -1.05 4.461582 6.655252 8.690528737549997 0 0 0
222 0 8 -1.05 6.655252 4.461582 8.690528737549997 0 0 0
225 1 6 1.575 1.318417 1.318417 9.787365737549997 0 0 0
227 1 6 1.575 5.558417 1.318417 14.02736273755 0 0 0
228 1 7 1.575 3.438417 7.678417 11.907364737549997 0 0 0
229 1 7 1.575 1.318417 5.558417 14.02736273755 0 0 0
230 1 6 1.575 7.678417 3.438417 11.907364737549997 0 0 0
231 1 6 1.575 5.558417 5.558417 9.787365737549997 0 0 0
233 2 7 1.575 4.498417 0.258417 8.72736373755 0 0 0
234 2 7 1.575 2.378417 2.378417 12.967365737549997 0 0 0
235 2 7 1.575 6.618417 6.618417 12.967365737549997 0 0 0
237 2 6 1.05 2.378417 4.498417 10.84736273755 0 0 0
238 2 6 1.05 0.258417 6.618417 10.84736273755 0 0 0
240 2 7 1.575 0.258417 4.498417 8.72736373755 0 0 0
241 2 6 1.05 4.498417 2.378417 10.84736273755 0 0 0
244 2 6 1.05 6.618417 0.258417 10.84736273755 0 0 0
245 2 7 1.575 0.258417 0.258417 12.967365737549997 0 0 0
246 2 7 1.575 6.618417 2.378417 8.72736373755 0 0 0
247 2 7 1.575 2.378417 6.618417 8.72736373755 0 0 0
248 2 7 1.575 4.498417 4.498417 12.967365737549997 0 0 0
250 0 8 -1.05 6.581581 0.295252 8.764198737549997 0 0 0
251 0 8 -1.05 4.461582 2.415252 12.930526737549997 0 0 0
252 0 8 -1.05 4.535252 6.581581 13.004200737549994 0 0 0
254 0 8 -1.05 0.295252 4.535252 10.810527737549997 0 0 0
255 0 8 -1.05 6.655252 6.655252 10.884197737549997 0 0 0
258 0 8 -1.05 0.295252 6.581581 8.764198737549997 0 0 0
259 0 8 -1.05 4.461582 4.461582 10.884197737549997 0 0 0
261 0 8 -1.05 6.655252 8.701582 12.930526737549997 0 0 0
262 0 8 -1.05 2.341582 0.295252 13.004200737549994 0 0 0
264 0 8 -1.05 6.581581 2.341582 10.810527737549997 0 0 0
265 0 8 -1.05 8.701582 8.701582 10.884197737549997 0 0 0
267 0 8 -1.05 2.415252 4.461582 12.930526737549997 0 0 0
268 0 8 -1.05 6.581581 4.535252 13.004200737549994 0 0 0
270 0 8 -1.05 4.535252 2.341582 8.764198737549997 0 0 0
272 0 8 -1.05 2.341582 6.581581 10.810527737549997 0 0 0
273 0 8 -1.05 4.535252 0.295252 10.810527737549997 0 0 0
275 0 8 -1.05 0.295252 2.341582 13.004200737549994 0 0 0
276 0 8 -1.05 8.701582 6.655252 12.930526737549997 0 0 0
277 0 8 -1.05 2.341582 4.535252 8.764198737549997 0 0 0
279 0 8 -1.05 2.415252 2.415252 10.884197737549997 0 0 0
226 1 6 1.575 7.678417 7.678417 16.14736173755 0 0 0
232 1 7 1.575 3.438417 3.438417 16.14736173755 0 0 0
236 2 6 1.05 6.618417 4.498417 15.087364737549997 0 0 0
239 2 6 1.05 0.258417 2.378417 15.087364737549997 0 0 0
242 2 6 1.05 4.498417 6.618417 15.087364737549997 0 0 0
243 2 6 1.05 2.378417 0.258417 15.087364737549997 0 0 0
249 0 8 -1.05 2.415252 8.701582 17.170528737549994 0 0 0
253 0 8 -1.05 8.701582 4.461582 15.124199737549993 0 0 0
256 0 8 -1.05 2.341582 2.341582 15.050525737549997 0 0 0
257 0 8 -1.05 8.701582 2.415252 17.170528737549994 0 0 0
260 0 8 -1.05 4.535252 4.535252 15.050525737549997 0 0 0
263 0 8 -1.05 2.415252 6.655252 15.124199737549993 0 0 0
266 0 8 -1.05 0.295252 0.295252 15.050525737549997 0 0 0
269 0 8 -1.05 4.461582 6.655252 17.170528737549994 0 0 0
271 0 8 -1.05 6.655252 2.415252 15.124199737549993 0 0 0
274 0 8 -1.05 4.461582 8.701582 15.124199737549993 0 0 0
278 0 8 -1.05 6.655252 4.461582 17.170528737549994 0 0 0
280 0 8 -1.05 6.581581 6.581581 15.050525737549997 0 0 0
1586 1 7 1.575 3.438417 11.918417 7.66736273755 0 0 0
1611 0 8 -1.05 8.701582 10.895252000000001 8.690528737549997 0 0 0
1632 0 8 -1.05 6.655252 12.941582 8.690528737549997 0 0 0
1635 1 6 1.575 1.318417 9.798417 9.787365737549997 0 0 0
1637 1 6 1.575 5.558417 9.798417 14.02736273755 0 0 0
1640 1 6 1.575 7.678417 11.918417 11.907364737549997 0 0 0
1643 2 7 1.575 4.498417 8.738417 8.72736373755 0 0 0
1644 2 7 1.575 2.378417 10.858417 12.967365737549997 0 0 0
1651 2 6 1.05 4.498417 10.858417 10.84736273755 0 0 0
1654 2 6 1.05 6.618417 8.738417 10.84736273755 0 0 0
1655 2 7 1.575 0.258417 8.738417 12.967365737549997 0 0 0
1656 2 7 1.575 6.618417 10.858417 8.72736373755 0 0 0
1660 0 8 -1.05 6.581581 8.775252 8.764198737549997 0 0 0
1661 0 8 -1.05 4.461582 10.895252000000001 12.930526737549997 0 0 0
1669 0 8 -1.05 4.461582 12.941582 10.884197737549997 0 0 0
1672 0 8 -1.05 2.341582 8.775252 13.004200737549994 0 0 0
1674 0 8 -1.05 6.581581 10.821582 10.810527737549997 0 0 0
1677 0 8 -1.05 2.415252 12.941582 12.930526737549997 0 0 0
1680 0 8 -1.05 4.535252 10.821582 8.764198737549997 0 0 0
1683 0 8 -1.05 4.535252 8.775252 10.810527737549997 0 0 0
1685 0 8 -1.05 0.295252 10.821582 13.004200737549994 0 0 0
1689 0 8 -1.05 2.415252 10.895252000000001 10.884197737549997 0 0 0
1642 1 7 1.575 3.438417 11.918417 16.14736173755 0 0 0
1649 2 6 1.05 0.258417 10.858417 15.087364737549997 0 0 0
1653 2 6 1.05 2.378417 8.738417 15.087364737549997 0 0 0
1663 0 8 -1.05 8.701582 12.941582 15.124199737549993 0 0 0
1666 0 8 -1.05 2.341582 10.821582 15.050525737549997 0 0 0
1667 0 8 -1.05 8.701582 10.895252000000001 17.170528737549994 0 0 0
1676 0 8 -1.05 0.295252 8.775252 15.050525737549997 0 0 0
1681 0 8 -1.05 6.655252 10.895252000000001 15.124199737549993 0 0 0
1688 0 8 -1.05 6.655252 12.941582 17.170528737549994 0 0 0
646 1 7 1.575 11.918417 3.438417 7.66736273755 0 0 0
663 0 8 -1.05 10.895252000000001 8.701582 8.690528737549997 0 0 0
683 0 8 -1.05 12.941582 6.655252 8.690528737549997 0 0 0
695 1 6 1.575 9.798417 1.318417 9.787365737549997 0 0 0
698 1 7 1.575 11.918417 7.678417 11.907364737549997 0 0 0
699 1 7 1.575 9.798417 5.558417 14.02736273755 0 0 0
704 2 7 1.575 10.858417 2.378417 12.967365737549997 0 0 0
707 2 6 1.05 10.858417 4.498417 10.84736273755 0 0 0
708 2 6 1.05 8.738417 6.618417 10.84736273755 0 0 0
710 2 7 1.575 8.738417 4.498417 8.72736373755 0 0 0
715 2 7 1.575 8.738417 0.258417 12.967365737549997 0 0 0
717 2 7 1.575 10.858417 6.618417 8.72736373755 0 0 0
721 0 8 -1.05 12.941582 2.415252 12.930526737549997 0 0 0
724 0 8 -1.05 8.775252 4.535252 10.810527737549997 0 0 0
728 0 8 -1.05 8.775252 6.581581 8.764198737549997 0 0 0
729 0 8 -1.05 12.941582 4.461582 10.884197737549997 0 0 0
732 0 8 -1.05 10.821582 0.295252 13.004200737549994 0 0 0
737 0 8 -1.05 10.895252000000001 4.461582 12.930526737549997 0 0 0
742 0 8 -1.05 10.821582 6.581581 10.810527737549997 0 0 0