LAMMPS data file via write_data, version 17 Feb 2022, timestep = 20

4230 atoms
10 atom types
72 bonds
6 bond types
108 angles
6 angle types
0 dihedrals
2 dihedral types
18 impropers
2 improper types

0.239999 25.679999000000002 xlo xhi
0.239999 25.679999000000002 ylo yhi
-32.391176 66.805898 zlo zhi

Masses

1 12.011
2 1.008
3 15.9994
4 15.9994
5 1.008
6 55.845
7 55.845
8 15.9994
9 15.9994
10 1.008

Pair Coeffs # lj/cut/coul/long

1 0.0988 3.31521
2 0.0161 2.4473
3 0.1463 3.04812
4 0.093 3.24287
5 0.0047 0.537925
6 9.0298e-07 4.9062
7 9.0298e-07 4.9062
8 0.1554 3.16554
9 0.1554 3.16554
10 0 0

Bond Coeffs # harmonic

1 361.8 1.105
2 652.57 1.218
3 383.13 1.351
4 563.51 0.973
5 554.135 1
6 0 2.08

Angle Coeffs # harmonic

1 51.617 106.55
2 65.93 123.65
3 65.262 109.49
4 115.745 122.1
5 118.817 130.25
6 30 109.47

Dihedral Coeffs # fourier

1 1 2.3 2 180
2 2 2.3 2 180 1.9 1 0

Improper Coeffs # cvff

1 10.5 -1 2
2 10.5 -1 2

Atoms # full

466 0 1 0.731 3.4187040087881564 7.628933052590582 -19.415329203489506 0 0 0
467 0 2 -0.123 3.4327611807731366 7.662731080372051 -20.515260091245292 0 0 0
468 0 3 -0.804 4.112504671018065 8.411782475437269 -18.78952522274723 0 0 0
469 0 3 -0.804 2.7013016723303367 6.81071898525183 -18.858343139631863 0 0 0
938 0 3 -0.804 12.616304001992875 8.41086216664543 -18.8006373533873 0 0 0
936 0 1 0.731 11.901432312702562 7.630461010350571 -19.40976121739858 0 0 0
937 0 2 -0.123 11.903710848750364 7.655444657510373 -20.510430704919283 0 0 0
939 0 3 -0.804 11.180212090005545 6.827911251196963 -18.838708127506397 0 0 0
1406 0 1 0.731 20.383249877378613 7.6335237558483815 -19.414178842436 0 0 0
1407 0 2 -0.123 20.37396273854728 7.646171858480426 -20.51482124311219 0 0 0
1408 0 3 -0.804 21.094992183594133 8.425193715860395 -18.819744615156036 0 0 0
1409 0 3 -0.804 19.674881498298443 6.829498930121704 -18.826759337114225 0 0 0
1876 0 1 0.731 3.4156287890369352 16.10606818376589 -19.413693004562994 0 0 0
1877 0 2 -0.123 3.4220906529645228 16.132760048960883 -20.514045630458202 0 0 0
1878 0 3 -0.804 4.118394617509437 16.88916747448313 -18.79832215647273 0 0 0
1879 0 3 -0.804 2.6980073643855293 15.294262428452091 -18.847264473869892 0 0 0
2346 0 1 0.731 11.900747286746121 16.109449026940563 -19.41356791388903 0 0 0
2347 0 2 -0.123 11.891709566657218 16.123141896645325 -20.51432825278436 0 0 0
2349 0 3 -0.804 11.192090216899077 15.303737006655943 -18.827722003887562 0 0 0
2348 0 3 -0.804 12.61142201388458 16.900101437676682 -18.817198303088144 0 0 0
2816 0 1 0.731 20.380622685327126 16.10956199850252 -19.417322543794768 0 0 0
2817 0 2 -0.123 20.380862355632598 16.132865575318114 -20.51764628157442 0 0 0
2818 0 3 -0.804 21.082325862721493 16.897306129176904 -18.807642180392566 0 0 0
2819 0 3 -0.804 19.669774383974158 15.296057516998342 -18.844339413551587 0 0 0
3286 0 1 0.731 3.4185256357054388 24.590668352485604 -19.411573759349583 0 0 0
3287 0 2 -0.123 3.420811910104091 24.610515185710913 -20.51222722721699 0 0 0
3289 0 3 -0.804 2.697966009271077 23.787012784871777 -18.837272251710726 0 0 0
3288 0 3 -0.804 4.12917843856027 25.373253280362455 -18.804693380778335 0 0 0
3756 0 1 0.731 11.898245738063128 24.586872518973397 -19.41602092174476 0 0 0
3757 0 2 -0.123 11.893139760410602 24.60555729077899 -20.516570616164252 0 0 0
3759 0 3 -0.804 11.184136045311513 23.781890480685323 -18.836596132551872 0 0 0
3758 0 3 -0.804 12.612039176010963 25.372030948019116 -18.815053393576267 0 0 0
4226 0 1 0.731 20.382824639160017 24.59246965392883 -19.407913342371263 0 0 0
4227 0 2 -0.123 20.381408634996472 24.61359138267069 -20.508522619535817 0 0 0
4229 0 3 -0.804 19.665971993011613 23.781604641935914 -18.833791199603116 0 0 0
4228 0 3 -0.804 21.088798717592105 25.375031824211554 -18.80051045934354 0 0 0
25 0 8 -1.05 2.5050332985564707 8.629373507499622 -16.42505424768771 0 0 0
33 0 8 -1.05 8.59193307379364 2.536396983123829 -16.650405635248585 0 0 0
45 0 8 -1.05 4.322636938072168 6.768992346938988 -16.40483866048798 0 0 0
54 0 8 -1.05 6.735287163542887 4.370248201414652 -16.634107112810494 0 0 0
57 1 7 1.575 1.2588396599713485 1.3371411036665197 -15.690451409790757 0 0 0
63 1 6 1.575 5.580368023795001 5.559648440943166 -15.695506932806913 0 0 0
65 2 7 1.575 4.463981144330948 0.24456340312009475 -16.93821730702877 0 0 0
69 2 7 1.575 2.415595255968644 4.493470728415995 -14.5849362124531 0 0 0
70 2 7 1.575 0.2715957925579951 6.637816165125044 -14.638949136671556 0 0 0
72 2 7 1.575 25.66486606431037 4.502121071230213 -16.730219562187507 -1 0 0
73 2 7 1.575 4.488170118097978 2.3826564519740803 -14.607781039182388 0 0 0
76 2 7 1.575 6.612451481089668 25.65960293520468 -14.616974002359187 0 -1 0
78 2 7 1.575 6.593134657045908 2.3929178251683063 -16.70399572817064 0 0 0
79 2 7 1.575 2.4150485037742047 6.729422954690863 -16.974853923938554 0 0 0
82 0 8 -1.05 6.425054593551321 0.44377876838548774 -16.54255093343765 0 0 0
86 0 8 -1.05 0.3357632210069009 4.562383320844996 -14.609266995194973 0 0 0
87 0 8 -1.05 6.692129699180755 6.674962020141606 -14.489346252462235 0 0 0
90 0 8 -1.05 0.47860789996565606 6.438294254165773 -16.561550557191378 0 0 0
91 0 8 -1.05 4.422053481265875 4.410404344558663 -14.55570780239329 0 0 0
96 0 8 -1.05 6.539632307661007 2.327991832196128 -14.594237152978685 0 0 0
97 0 8 -1.05 8.621223045276986 8.680180851377132 -14.546176563706393 0 0 0
102 0 8 -1.05 4.600583924548135 2.2774401347902393 -16.557052996124757 0 0 0
104 0 8 -1.05 2.2384778151175913 6.456475118288417 -14.43082504564135 0 0 0
105 0 8 -1.05 4.635637139881882 0.40918065233414647 -14.442484150960027 0 0 0
109 0 9 -1 2.2813774398017013 4.576471465003867 -16.586603351110607 0 0 0
111 0 8 -1.05 2.415274505112228 2.4616943571239918 -14.492550838123242 0 0 0
470 0 10 0.425 2.8790265778863064 3.950589282452487 -17.15655078772359 0 0 0
60 1 6 1.575 3.4502332994550082 7.667875720449668 -13.597209554691654 0 0 0
62 1 7 1.575 7.68781581014333 3.4441354924744534 -13.527730440424742 0 0 0
59 1 7 1.575 5.544010489367086 1.2994579371333141 -11.444507639400342 0 0 0
61 1 7 1.575 1.3193907173532222 5.58433359537818 -11.435107894959012 0 0 0
66 2 7 1.575 2.366014236113795 2.362134911542602 -12.463184806725446 0 0 0
67 2 7 1.575 6.61521683862262 6.608648788102469 -12.467575173407434 0 0 0
77 2 6 1.05 0.2626124320033651 0.2588646547941702 -12.456332068795236 0 0 0
80 2 6 1.05 4.517394026467134 4.509011080410124 -12.46018389386227 0 0 0
83 0 8 -1.05 4.38899423638646 2.4192097537250397 -12.536146369444493 0 0 0
84 0 8 -1.05 4.58029012465712 6.626710546178908 -12.389634768498652 0 0 0
93 0 8 -1.05 6.650748821843943 8.643228696366963 -12.535209639929986 0 0 0
94 0 8 -1.05 2.3889054938376724 0.33314410976473374 -12.386872787643616 0 0 0
99 0 8 -1.05 2.379078425123933 4.3827663220123885 -12.532251863451904 0 0 0
100 0 8 -1.05 6.595385467404351 4.609627045884307 -12.46055934505346 0 0 0
107 0 8 -1.05 0.3692610274476951 2.346734901101414 -12.447571428714888 0 0 0
108 0 8 -1.05 8.627054943174722 6.621206441722232 -12.545271985007224 0 0 0
495 0 8 -1.05 11.000619878518036 8.638655239713291 -16.43854615145038 0 0 0
515 0 8 -1.05 12.812651707677318 6.7616161712469305 -16.419734737397906 0 0 0
527 1 7 1.575 9.743955917510885 1.3473034377360928 -15.696135687932852 0 0 0
539 2 7 1.575 10.882912367049382 4.49831076925637 -14.587951272297937 0 0 0
540 2 7 1.575 8.741082338652435 6.659643373305916 -14.630358601585174 0 0 0
542 2 7 1.575 8.702299581824557 4.50389426394991 -16.723835002600417 0 0 0
549 2 7 1.575 10.89061276408823 6.728365367544815 -16.950449324604364 0 0 0
556 0 8 -1.05 8.818571820339368 4.559941838608531 -14.618478301583785 0 0 0
560 0 8 -1.05 8.939255237505566 6.441148395763188 -16.56331887155701 0 0 0
561 0 8 -1.05 12.915688333171744 4.42048422246175 -14.507863726882242 0 0 0
574 0 8 -1.05 10.712708884163872 6.48067205379575 -14.475155085947266 0 0 0
579 0 9 -1 10.762000488885775 4.593756459317432 -16.595004394528043 0 0 0
581 0 8 -1.05 10.904952242876842 2.4857133305683385 -14.566578764794986 0 0 0
940 0 10 0.425 11.360219006890873 3.9684208782073056 -17.163953115661318 0 0 0
530 1 6 1.575 11.90903119481568 7.683330881785531 -13.598394338007878 0 0 0
531 1 7 1.575 9.815679541209505 5.555484244775701 -11.439073663750026 0 0 0
536 2 6 1.05 10.847038891535474 2.3672982340252897 -12.460701593951304 0 0 0
547 2 7 1.575 8.74707769516961 0.2636042405642516 -12.464511790445115 0 0 0
553 0 8 -1.05 12.957586497148307 2.4996555794897204 -12.557407092096255 0 0 0
564 0 8 -1.05 10.774696230028027 0.2541394019317297 -12.390340092443294 0 0 0
569 0 8 -1.05 10.94809571445858 4.456442580701488 -12.553235618595732 0 0 0
577 0 8 -1.05 8.757226168474842 2.2677517654846047 -12.45663666423374 0 0 0
503 0 8 -1.05 17.078111512926174 2.5352591545449186 -16.645063605140482 0 0 0
524 0 8 -1.05 15.213629549501164 4.363738218551495 -16.62140471649729 0 0 0
533 1 6 1.575 14.06285742846959 5.562938060786705 -15.679203288577046 0 0 0
535 2 7 1.575 12.938234898651144 0.2481101959098271 -16.948639334955946 0 0 0
543 2 7 1.575 12.938772854496463 2.370962089066852 -14.603514140525654 0 0 0
546 2 7 1.575 15.077903131505405 25.66186228140007 -14.609432788067155 0 -1 0
548 2 7 1.575 15.074592768344694 2.3861330628054938 -16.693508527592826 0 0 0
552 0 8 -1.05 14.902283919259434 0.43058071155493644 -16.537155526475548 0 0 0
557 0 8 -1.05 15.217071328271063 6.682877764253916 -14.552751837447854 0 0 0
566 0 8 -1.05 15.031895828622506 2.308979603557492 -14.597816042244474 0 0 0
567 0 8 -1.05 17.14138218426254 8.688609671171085 -14.493816348490268 0 0 0
572 0 8 -1.05 13.089852534891039 2.270515462881009 -16.55262061414597 0 0 0
575 0 8 -1.05 13.10828660946276 0.39988663467560775 -14.412104540780545 0 0 0
532 1 7 1.575 16.16369833938207 3.4344155001222543 -13.522585793945337 0 0 0
529 1 7 1.575 14.029434888209682 1.3383494093638884 -11.443670098746791 0 0 0
537 2 6 1.05 15.068988529691032 6.613069786706055 -12.439687776083415 0 0 0
550 2 7 1.575 12.99349304668508 4.52709225109359 -12.45183472016303 0 0 0
554 0 8 -1.05 12.975258780493068 6.525007390317208 -12.476903702930235 0 0 0
563 0 8 -1.05 15.21886933739934 8.752519034882887 -12.558859813776403 0 0 0
570 0 8 -1.05 15.000340017383563 4.513605127051609 -12.45920074485239 0 0 0
578 0 8 -1.05 17.205137022423568 6.720556836118965 -12.56098303985244 0 0 0
965 0 8 -1.05 19.487115253083218 8.64353364528245 -16.42843352544586 0 0 0
973 0 8 -1.05 25.557856915385663 2.538812053736098 -16.63946046346859 0 0 0
985 0 8 -1.05 21.30512411442954 6.7786947002637366 -16.421826936255556 0 0 0
994 0 8 -1.05 23.702020122924086 4.373065562386309 -16.62374699207024 0 0 0
997 1 7 1.575 18.21754413409318 1.3412562911582762 -15.68744384097619 0 0 0
1003 1 6 1.575 22.53503657020285 5.556988607989049 -15.692219112605859 0 0 0
1005 2 7 1.575 21.421048332655715 0.25125163443618453 -16.933969496664826 0 0 0
1009 2 7 1.575 19.37179751508565 4.497173376467505 -14.589819723095504 0 0 0
1010 2 7 1.575 17.219792672396718 6.635158449096847 -14.620125390799197 0 0 0
1012 2 7 1.575 17.175166025824943 4.50462329774015 -16.72073614003057 0 0 0
1013 2 7 1.575 21.437292393752777 2.3832834217567704 -14.60983278617388 0 0 0
1016 2 7 1.575 23.57471306528873 0.24330537667050314 -14.616232399256376 0 0 0
1018 2 7 1.575 23.557080549474286 2.3945529870969517 -16.701003045768886 0 0 0
1019 2 7 1.575 19.377113679896325 6.729153703220723 -16.941270408575456 0 0 0
1022 0 8 -1.05 23.385555623807832 0.44528884147269227 -16.54195967195335 0 0 0
1026 0 8 -1.05 17.308947145261772 4.545525847078953 -14.610501572575016 0 0 0
1027 0 8 -1.05 23.674685605111677 6.662982078424903 -14.49006506582569 0 0 0
1030 0 8 -1.05 17.441114879484306 6.437619203005063 -16.554742877349437 0 0 0
1031 0 8 -1.05 21.389110933067744 4.407379655571013 -14.553647601966382 0 0 0
1036 0 8 -1.05 23.50173158257502 2.3252682033879055 -14.575038314038295 0 0 0
1037 0 8 -1.05 25.59476613886756 8.669638199314354 -14.491519624914075 0 0 0
1042 0 8 -1.05 21.570371831763445 2.2838715858241256 -16.557294160309652 0 0 0
1044 0 8 -1.05 19.21688880226056 6.465380134689047 -14.476676729066956 0 0 0
1045 0 8 -1.05 21.590232639541384 0.4063429675969512 -14.45928056456133 0 0 0
1049 0 9 -1 19.24441810706905 4.57417826374727 -16.592441627709125 0 0 0
1051 0 8 -1.05 19.37947886867249 2.465484759769165 -14.498325184178809 0 0 0
1410 0 10 0.425 19.838873462293535 3.9510169230334538 -17.167586329943443 0 0 0
1000 1 6 1.575 20.385702980569082 7.685784734300351 -13.599378331804438 0 0 0
1002 1 7 1.575 24.648861505150098 3.4422889117889763 -13.514064488453979 0 0 0
999 1 7 1.575 22.50328541186713 1.3210684169076214 -11.437296122258493 0 0 0
1001 1 7 1.575 18.262311215833172 5.566463847808667 -11.426469097489226 0 0 0
1006 2 7 1.575 19.334828647426235 2.3637491170344482 -12.453272653967069 0 0 0
1007 2 7 1.575 23.544013003523027 6.609406522321215 -12.467787465672247 0 0 0
1017 2 7 1.575 17.227376647786606 0.2505754614676915 -12.454246698131257 0 0 0
1020 2 6 1.05 21.4386310663273 4.532620351538609 -12.456267359688155 0 0 0
1023 0 8 -1.05 21.354084188707958 2.41948947241472 -12.549097936890886 0 0 0
1024 0 8 -1.05 21.56049857416518 6.6240841487432816 -12.474831728678847 0 0 0
1033 0 8 -1.05 23.671487996672575 8.645653023459277 -12.536951916624774 0 0 0
1034 0 8 -1.05 19.257305458572073 0.33751170789416063 -12.490231267764425 0 0 0
1039 0 8 -1.05 19.329917810345968 4.383354232542252 -12.542483134098191 0 0 0
1040 0 8 -1.05 23.574219200735783 4.5925406830165825 -12.391122281526822 0 0 0
1047 0 8 -1.05 17.31604693595833 2.2789514221883027 -12.47999120202753 0 0 0
1048 0 8 -1.05 25.588860581317725 6.693060047700501 -12.54340897470303 0 0 0
1443 0 8 -1.05 8.595772147959323 11.017141199016752 -16.64224799368234 0 0 0
1464 0 8 -1.05 6.735019881393826 12.846821819237912 -16.627184829011778 0 0 0
1467 1 7 1.575 1.2653626901704622 9.82239199087653 -15.670242182357677 0 0 0
1475 2 7 1.575 4.452805921042307 8.733904197188966 -16.925959864370622 0 0 0
1483 2 7 1.575 4.464018356520526 10.8571214465367 -14.6057025688546 0 0 0
1486 2 7 1.575 6.611878503012351 8.725553204093789 -14.61474920300057 0 0 0
1488 2 7 1.575 6.596534370121626 10.870070790087054 -16.70178628786207 0 0 0
1492 0 8 -1.05 6.413419689930633 8.92052720099835 -16.542238570043637 0 0 0
1501 0 8 -1.05 4.4491613872370905 12.909338204966355 -14.49555747971159 0 0 0
1506 0 8 -1.05 6.544727591804019 10.802899496680936 -14.586527588301713 0 0 0
1512 0 8 -1.05 4.606432419112686 10.768200693749101 -16.553730819306367 0 0 0
1515 0 8 -1.05 4.628405381801249 8.892180809955477 -14.449356881872408 0 0 0
1521 0 8 -1.05 2.432891007647419 10.972804753047763 -14.557228411532948 0 0 0
1880 0 10 0.425 2.8810805326507385 12.43797147306989 -17.1595874974302 0 0 0
1472 1 7 1.575 7.68081817771912 11.926081534464146 -13.521853960101684 0 0 0
1469 1 7 1.575 5.55207774888863 9.798304814532033 -11.426776746848244 0 0 0
1476 2 6 1.05 2.3661619909812557 10.823199297906612 -12.448918299908454 0 0 0
1487 2 7 1.575 0.2859194621165796 8.757835370120347 -12.45910205796418 0 0 0
1493 0 8 -1.05 4.49647868563624 10.981880582079443 -12.546972163396147 0 0 0
1504 0 8 -1.05 2.272798116025842 8.717199137995452 -12.472432670881279 0 0 0
1509 0 8 -1.05 2.4702233775248637 12.949499999013044 -12.53958951648159 0 0 0
1517 0 8 -1.05 0.26115263043919407 10.745617528163026 -12.47374237851831 0 0 0
1435 0 8 -1.05 2.50576075017024 17.114640054316894 -16.428833364046817 0 0 0
1455 0 8 -1.05 4.322360574942578 15.247821487094484 -16.413478516667062 0 0 0
1473 1 6 1.575 5.587481775820497 14.05248469143037 -15.697893531859444 0 0 0
1479 2 7 1.575 2.4039510614201163 12.97384451348835 -14.586236265102693 0 0 0
1480 2 7 1.575 0.265103797989772 15.126801895185563 -14.649861581218339 0 0 0
1482 2 7 1.575 25.66693771748139 12.975418866824706 -16.727277593405084 -1 0 0
1489 2 7 1.575 2.407728497162954 15.210686162159542 -16.962125406137577 0 0 0
1496 0 8 -1.05 0.3348977016091328 13.047021392931693 -14.606768593697245 0 0 0
1497 0 8 -1.05 6.731020264677102 15.161748546518554 -14.548252330769765 0 0 0
1500 0 8 -1.05 0.46148653325112754 14.912956516170892 -16.573854850558117 0 0 0
1507 0 8 -1.05 8.651255029167373 17.17395388375025 -14.48794622482561 0 0 0
1514 0 8 -1.05 2.232052352838094 14.947145438701945 -14.477829132762713 0 0 0
1470 1 6 1.575 3.4379865415996345 16.140863006519975 -13.601161749411633 0 0 0
1519 0 9 -1 2.2820002843696745 13.063320707632663 -16.59090576791304 0 0 0
1471 1 7 1.575 1.3178931988618146 14.055935561937519 -11.437972802248611 0 0 0
1477 2 6 1.05 6.587942056159026 15.11738167809963 -12.462615760178762 0 0 0
1490 2 7 1.575 4.49710136909863 12.998040708762648 -12.460545725933601 0 0 0
1494 0 8 -1.05 4.510052031308068 14.986914880241176 -12.466614804821196 0 0 0
1503 0 8 -1.05 6.73494798776844 17.217133978987675 -12.538102418700841 0 0 0
1510 0 8 -1.05 6.53928829962431 12.990068990866053 -12.379231417343263 0 0 0
1518 0 8 -1.05 8.700588862148216 15.187589356449566 -12.539356981920424 0 0 0
1937 1 7 1.575 9.740147897657703 9.814922799379763 -15.694594109809685 0 0 0
1971 0 8 -1.05 12.903032314158661 12.879807909185596 -14.55711266080021 0 0 0
1991 0 8 -1.05 10.883460545429049 10.945259846225682 -14.498205489665708 0 0 0
2350 0 10 0.425 11.356795276111246 12.430813158277964 -17.16141278508757 0 0 0
1946 2 7 1.575 10.86090368934819 10.835897152075741 -12.464804782208397 0 0 0
1957 2 6 1.05 8.765161676306267 8.724060422706149 -12.459663965598219 0 0 0
1963 0 8 -1.05 12.871844444262932 10.898184398955953 -12.543834915164304 0 0 0
1974 0 8 -1.05 10.837184250515914 8.84673821433858 -12.467466933620258 0 0 0
1979 0 8 -1.05 10.848848215039157 12.85745181366259 -12.549159078517672 0 0 0
1987 0 8 -1.05 8.818652400287984 10.862784604152218 -12.376640261043036 0 0 0
1905 0 8 -1.05 11.002941086668624 17.116827703224036 -16.426863394837568 0 0 0
1925 0 8 -1.05 12.82365343658524 15.256043111096634 -16.410455266666787 0 0 0
1949 2 7 1.575 10.8974053153954 12.975957639392949 -14.586801305236904 0 0 0
1950 2 7 1.575 8.740453029682016 15.121963831020269 -14.625525913356334 0 0 0
1952 2 7 1.575 8.701098944174037 12.984283581924997 -16.720818838336353 0 0 0
1959 2 7 1.575 10.899053493709031 15.204122025317043 -16.94189177170774 0 0 0
1966 0 8 -1.05 8.815320225844816 13.0372911858711 -14.608032933575673 0 0 0
1970 0 8 -1.05 8.955804247423181 14.919205086225348 -16.557988663578872 0 0 0
1984 0 8 -1.05 10.724119652041484 14.943202172728258 -14.472836536275379 0 0 0
1940 1 6 1.575 11.904061854975335 16.16103870796814 -13.60315793923354 0 0 0
1989 0 9 -1 10.759942379471331 13.055182282274135 -16.58937543341581 0 0 0
1941 1 7 1.575 9.80230015008382 14.038618444912087 -11.433507280245067 0 0 0
1913 0 8 -1.05 17.078935869165186 11.021279979742081 -16.64703872799756 0 0 0
1934 0 8 -1.05 15.218876916562007 12.855793947314833 -16.623621817480107 0 0 0
1945 2 7 1.575 12.946155948717777 8.721666044970567 -16.931225867834673 0 0 0
1953 2 7 1.575 12.962753140796721 10.857940983275206 -14.60446983208979 0 0 0
1956 2 7 1.575 15.088467689063975 8.695056745509234 -14.619635361249234 0 0 0
1958 2 7 1.575 15.070952587663836 10.876151113741981 -16.699320952460994 0 0 0
1962 0 8 -1.05 14.914833876187753 8.925850841778717 -16.547951002082883 0 0 0
1976 0 8 -1.05 15.02723903705008 10.802634736045281 -14.597110747855313 0 0 0
1982 0 8 -1.05 13.084152181215515 10.75633358244205 -16.556565763971975 0 0 0
1985 0 8 -1.05 13.1156295179911 8.882849157337382 -14.460795585626217 0 0 0
1942 1 7 1.575 16.172454622719528 11.90958289084551 -13.526494106089537 0 0 0
1939 1 7 1.575 14.028816565006048 9.793162726734764 -11.440251869492815 0 0 0
1943 1 6 1.575 14.056427904468407 14.03673084568073 -15.675625854729462 0 0 0
1967 0 8 -1.05 15.196162337127522 15.161427812091643 -14.496241604979334 0 0 0
1977 0 8 -1.05 17.11986316861723 17.1603773839371 -14.494000060773004 0 0 0
1947 2 7 1.575 15.064980930542115 15.080882947090952 -12.455468253689725 0 0 0
1960 2 6 1.05 12.994794686497928 13.007339687269694 -12.43934939006686 0 0 0
1964 0 8 -1.05 13.076703964187452 15.10747083740639 -12.481095092246077 0 0 0
1973 0 8 -1.05 15.203409150815725 17.141268017128073 -12.542241338341787 0 0 0
1980 0 8 -1.05 15.104413640540676 13.091281026181035 -12.467606493010416 0 0 0
1988 0 8 -1.05 17.118761939456018 15.182538739756096 -12.553256193788261 0 0 0
2820 0 10 0.425 19.839550033716296 12.438559129379765 -17.16731633424635 0 0 0
2412 1 7 1.575 24.632704996860642 11.932933341592015 -13.528273520647497 0 0 0
2383 0 8 -1.05 25.553549750596513 11.009513585926312 -16.628928895682417 0 0 0
2404 0 8 -1.05 23.701095602849097 12.848378932505497 -16.618993072102217 0 0 0
2407 1 7 1.575 18.217373712860436 9.819791518354105 -15.69652318152554 0 0 0
2415 2 7 1.575 21.4216511285567 8.73075815036025 -16.95488378484528 0 0 0
2423 2 7 1.575 21.434189083249404 10.862473117940995 -14.61408583944162 0 0 0
2426 2 7 1.575 23.566127835193637 8.712560748453596 -14.637951116017192 0 0 0
2428 2 7 1.575 23.555820997874594 10.872379417718813 -16.707731654177632 0 0 0
2432 0 8 -1.05 23.389681139819753 8.919583067456555 -16.555113372904728 0 0 0
2441 0 8 -1.05 21.39226045310648 12.887446832530392 -14.55642141910152 0 0 0
2446 0 8 -1.05 23.501371038306736 10.792707672772309 -14.584624268003035 0 0 0
2452 0 8 -1.05 21.570397714258316 10.754884548146872 -16.56035577261228 0 0 0
2455 0 8 -1.05 21.602415793004468 8.88568627425909 -14.445454866586955 0 0 0
2461 0 8 -1.05 19.377108239989735 10.949558860136174 -14.504644523003066 0 0 0
2409 1 7 1.575 22.51615833788633 9.799822835676395 -11.458222452796026 0 0 0
2416 2 7 1.575 19.334692536545344 10.845860254573447 -12.454163764627056 0 0 0
2427 2 7 1.575 17.222488036978092 8.732363999461418 -12.451407645916454 0 0 0
2433 0 8 -1.05 21.355229459016652 10.900367728843083 -12.557870486598432 0 0 0
2444 0 8 -1.05 19.258236587963243 8.826205009923127 -12.48854823807036 0 0 0
2449 0 8 -1.05 19.326066858460187 12.865738781833112 -12.54672856909048 0 0 0
2457 0 8 -1.05 17.31959584841284 10.764186986495778 -12.479085794640207 0 0 0
2459 0 9 -1 19.244799976807972 13.062475987312128 -16.593139220612358 0 0 0
2375 0 8 -1.05 19.473690735250415 17.119127752655764 -16.426584499693277 0 0 0
2395 0 8 -1.05 21.292079467715308 15.258669777282327 -16.4120374988906 0 0 0
2413 1 6 1.575 22.53728191914541 14.04514914460485 -15.695167916278315 0 0 0
2419 2 7 1.575 19.374827096167817 12.979712410853821 -14.590562600119684 0 0 0
2420 2 7 1.575 17.22452245682418 15.121127331116277 -14.63822190420998 0 0 0
2422 2 7 1.575 17.17992372318462 12.985768523557718 -16.730001348607875 0 0 0
2429 2 7 1.575 19.373527932182128 15.21352622138434 -16.96058724591142 0 0 0
2436 0 8 -1.05 17.302422035249162 13.037173943670748 -14.616906557185484 0 0 0
2437 0 8 -1.05 23.671433665815094 15.148067147821425 -14.490729182229021 0 0 0
2440 0 8 -1.05 17.43577168213095 14.921643961449494 -16.56379982934978 0 0 0
2447 0 8 -1.05 25.59163186743207 17.152939227089398 -14.49294405657143 0 0 0
2454 0 8 -1.05 19.200042269801052 14.944139284812502 -14.45563627002797 0 0 0
2410 1 6 1.575 20.394679080988226 16.156828309441106 -13.59770227309391 0 0 0
2411 1 7 1.575 18.257299106640723 14.054808075435181 -11.439499634526955 0 0 0
2417 2 7 1.575 23.549561075845304 15.096205568225773 -12.464403093189324 0 0 0
2430 2 6 1.05 21.44270954826391 13.010873159144206 -12.448999842626185 0 0 0
2434 0 8 -1.05 21.566632149355392 15.0930492236381 -12.474582212590077 0 0 0
2443 0 8 -1.05 23.673982781644085 17.124579728996817 -12.532636753631296 0 0 0
2450 0 8 -1.05 23.58334567058538 13.08346055879737 -12.388733058786835 0 0 0
2458 0 8 -1.05 25.593051064587804 15.166553993353787 -12.551051837500799 0 0 0
2845 0 8 -1.05 2.5213634562284173 25.600455950533775 -16.431946937493024 0 0 0
2853 0 8 -1.05 8.595163505026358 19.492882038608666 -16.64651515033864 0 0 0
2865 0 8 -1.05 4.328790454488812 23.726503944487682 -16.41497559951945 0 0 0
2874 0 8 -1.05 6.734803331711626 21.323280788099584 -16.62248972845019 0 0 0
2877 1 7 1.575 1.2645842699221672 18.307523080819884 -15.67105702291262 0 0 0
2883 1 6 1.575 5.5844040888850826 22.52512802393182 -15.687943625056755 0 0 0
2885 2 7 1.575 4.45260495029439 17.2114047772645 -16.933293675113674 0 0 0
2889 2 7 1.575 2.4010819437222035 21.458689514552017 -14.58025984364396 0 0 0
2890 2 7 1.575 0.2608751251236468 23.616939382233657 -14.631282030744707 0 0 0
2892 2 7 1.575 25.665870510635557 21.458375515434508 -16.718981180617863 -1 0 0
2893 2 7 1.575 4.45913891610395 19.33459536510096 -14.600179756907465 0 0 0
2896 2 7 1.575 6.604807337704118 17.186150150196553 -14.617571928654694 0 0 0
2898 2 7 1.575 6.592304781935535 19.34682312045177 -16.699241238664914 0 0 0
2899 2 7 1.575 2.4088371786597764 23.689657618206695 -16.950350458737496 0 0 0
2902 0 8 -1.05 6.4194489083074195 17.393342574108896 -16.54525143745009 0 0 0
2906 0 8 -1.05 0.33625991424834994 21.5205307868395 -14.613150334675813 0 0 0
2907 0 8 -1.05 6.73210966513451 23.643402902179332 -14.554554929320972 0 0 0
2910 0 8 -1.05 0.46090580231176326 23.396772287721078 -16.563878977902963 0 0 0
2911 0 8 -1.05 4.438518518641968 21.388669903687735 -14.503370740724511 0 0 0
2916 0 8 -1.05 6.550356521049441 19.272800422578197 -14.60236068173421 0 0 0
2917 0 8 -1.05 8.661828497798396 25.646526775276463 -14.492409771346525 0 0 0
2922 0 8 -1.05 4.605006338035468 19.23579050768693 -16.550733311286233 0 0 0
2924 0 8 -1.05 2.231767000116131 23.441809079895602 -14.472218712954362 0 0 0
2925 0 8 -1.05 4.635056569353477 17.36350859363051 -14.431464448850388 0 0 0
2929 0 9 -1 2.2826117303336133 21.551103405126096 -16.58866241714783 0 0 0
2931 0 8 -1.05 2.4276568834435652 19.452319926543538 -14.557343087269572 0 0 0
3290 0 10 0.425 2.8820692568768194 20.925492899709287 -17.156061458431953 0 0 0
2880 1 6 1.575 3.4330044967001276 24.637773504254415 -13.602295613070632 0 0 0
2882 1 7 1.575 7.676533259293411 20.399204474195127 -13.528306065234252 0 0 0
2879 1 7 1.575 5.555946513671702 18.301857049548833 -11.441840275419581 0 0 0
2881 1 7 1.575 1.3377729305784214 22.52447516114415 -11.428507690767857 0 0 0
2886 2 6 1.05 2.365307759312927 19.307135928010933 -12.438623322311887 0 0 0
2887 2 6 1.05 6.592313266308448 23.570324432635875 -12.450576266962013 0 0 0
2897 2 7 1.575 0.28702128994469345 17.238042895852562 -12.453728810274976 0 0 0
2900 2 7 1.575 4.509113554334242 21.483446369162444 -12.450951615830844 0 0 0
2903 0 8 -1.05 4.487438984558783 19.46444767988409 -12.554252898792901 0 0 0
2904 0 8 -1.05 4.491071269968055 23.485956170602282 -12.463377284946684 0 0 0
2913 0 8 -1.05 6.732524669199278 0.25062393145062956 -12.547602615274862 0 1 0
2914 0 8 -1.05 2.2679157662985543 17.198426368701917 -12.48090305942884 0 0 0
2919 0 8 -1.05 2.4713259773969325 21.426921559922302 -12.54524323305205 0 0 0
2920 0 8 -1.05 6.517333383289105 21.47409137594088 -12.44828705671751 0 0 0
2927 0 8 -1.05 0.2467182079959606 19.22782460411619 -12.466802509266596 0 0 0
2928 0 8 -1.05 8.7118078530425 23.66832104761931 -12.556812649719182 0 0 0
3350 1 6 1.575 11.902466783670503 24.628387617271045 -13.573197520655864 0 0 0
3760 0 10 0.425 11.359960925466202 20.915774975165686 -17.164519343491477 0 0 0
3315 0 8 -1.05 10.99787970179064 25.599782908970138 -16.441772365551344 0 0 0
3335 0 8 -1.05 12.811360770769067 23.729922622957382 -16.42494574564198 0 0 0
3347 1 7 1.575 9.746444557696837 18.304569010920567 -15.691399534178093 0 0 0
3359 2 7 1.575 10.88158057909186 21.455467273869335 -14.586637314590252 0 0 0
3360 2 7 1.575 8.7393611505442 23.600849944238472 -14.625351606442074 0 0 0
3362 2 7 1.575 8.698443502811962 21.460770348301583 -16.719853855266187 0 0 0
3369 2 7 1.575 10.889353100287913 23.690467700641126 -16.949830505210752 0 0 0
3376 0 8 -1.05 8.830056338156153 21.508200452173845 -14.599674662751125 0 0 0
3380 0 8 -1.05 8.950755817099903 23.39288754839059 -16.55868882643172 0 0 0
3381 0 8 -1.05 12.929475672484363 21.384526425990124 -14.493155130386903 0 0 0
3394 0 8 -1.05 10.72914344575556 23.428430944997025 -14.482568430090915 0 0 0
3399 0 9 -1 10.765201515167869 21.540076782384535 -16.591097342874765 0 0 0
3401 0 8 -1.05 10.910173998952677 19.44974212014067 -14.555216205178269 0 0 0
3351 1 7 1.575 9.790896247868607 22.524294205919734 -11.42440029828354 0 0 0
3356 2 6 1.05 10.868810125152175 19.301630411522154 -12.459029614170888 0 0 0
3367 2 7 1.575 8.751638133882475 17.214094111787595 -12.46538063871037 0 0 0
3373 0 8 -1.05 12.979757542618422 19.461861383244443 -12.540923106754342 0 0 0
3384 0 8 -1.05 10.743294233565386 17.227324126772018 -12.470388457578732 0 0 0
3389 0 8 -1.05 10.953787744685018 21.41781202429113 -12.528671491778914 0 0 0
3397 0 8 -1.05 8.738861179171636 19.256256900964683 -12.381379628702698 0 0 0
3323 0 8 -1.05 17.075568300920764 19.495158648244296 -16.635049102941316 0 0 0
3344 0 8 -1.05 15.21676301547498 21.326843345895103 -16.618924084569848 0 0 0
3353 1 6 1.575 14.063628964214832 22.532356137020546 -15.694503596923338 0 0 0
3355 2 7 1.575 12.939350918671463 17.210183101384803 -16.952193510200292 0 0 0
3363 2 7 1.575 12.939543923231716 19.335266267849747 -14.61065347522507 0 0 0
3366 2 7 1.575 15.083557543787448 17.198347223771098 -14.632307393732441 0 0 0
3368 2 7 1.575 15.074723943148568 19.352137234327103 -16.70785902061158 0 0 0
3372 0 8 -1.05 14.90331838111657 17.399819652903272 -16.552160912945734 0 0 0
3377 0 8 -1.05 15.210184425818891 23.635456094008664 -14.541538029412678 0 0 0
3386 0 8 -1.05 15.022835274575133 19.276728964930623 -14.59773394311398 0 0 0
3387 0 8 -1.05 17.13195626881808 25.643277671437602 -14.487843266572773 0 0 0
3392 0 8 -1.05 13.089093835084242 19.241211050496997 -16.55710187919335 0 0 0
3395 0 8 -1.05 13.117472531169541 17.37644681513437 -14.428385273688466 0 0 0
3352 1 7 1.575 16.14903824662126 20.416073257018102 -13.537118569978324 0 0 0
3349 1 7 1.575 14.058741661327952 18.27264810769773 -11.445578089170626 0 0 0
3357 2 6 1.05 15.072894700371215 23.599138699856706 -12.45444367882535 0 0 0