LAMMPS data file via write_data, version 17 Feb 2022, timestep = 305

2970 atoms
10 atom types
72 bonds
6 bond types
108 angles
6 angle types
0 dihedrals
2 dihedral types
18 impropers
2 improper types

0 25.44 xlo xhi
0 25.44 ylo yhi
-41.458422 32.908 zlo zhi

Masses

1 12.011
2 1.008
3 15.9994
4 15.9994
5 1.008
6 55.845
7 55.845
8 15.9994
9 15.9994
10 1.008

Pair Coeffs # lj/cut/coul/long

1 0.0988 3.31521
2 0.0161 2.4473
3 0.1463 3.04812
4 0.093 3.24287
5 0.0047 0.537925
6 9.0298e-07 4.9062
7 9.0298e-07 4.9062
8 0.1554 3.16554
9 0.1554 3.16554
10 0 0

Bond Coeffs # harmonic

1 361.8 1.105
2 652.57 1.218
3 383.13 1.351
4 563.51 0.973
5 554.135 1
6 0 2.08

Angle Coeffs # harmonic

1 51.617 106.55
2 65.93 123.65
3 65.262 109.49
4 115.745 122.1
5 118.817 130.25
6 30 109.47

Dihedral Coeffs # fourier

1 1 2.3 2 180
2 2 2.3 2 180 1.9 1 0

Improper Coeffs # cvff

1 10.5 -1 2
2 10.5 -1 2

Atoms # full

9 0 7 1.575 2.295274555334025 3.430782077774631 -29.891970327888124 0 0 0
79 0 7 1.575 6.504046093756178 7.727283401746091 -29.761431854418944 0 0 0
2 0 7 1.575 0.17040304557949987 1.201535701582536 -29.785066546917587 0 0 0
72 0 7 1.575 4.35635784878601 5.626404098061355 -29.841664290638068 0 0 0
12 0 8 -1.05 4.280343597155356 3.632815952733274 -30.00925768550389 0 0 0
75 0 8 -1.05 4.50528507664254 7.627108480693222 -29.82432824892505 0 0 0
6 0 8 -1.05 2.217373529197586 1.3496363871556176 -29.825772895686434 0 0 0
68 0 8 -1.05 2.3891941120286004 5.43058824982773 -29.889177295628528 0 0 0
76 0 8 -1.05 6.307732079088216 5.776524352122716 -29.83838594234775 0 0 0
5 0 8 -1.05 0.3636485446613742 3.142789983163101 -29.995424185463573 0 0 0
18 0 8 -1.05 6.553132590805493 1.0342080975127426 -29.781795733497354 0 0 0
62 0 8 -1.05 25.389624163050886 7.685649722651347 -29.815336672082903 -1 0 0
15 0 7 1.575 5.654902824745998 2.5902875197150785 -29.154346573875554 0 0 0
65 0 7 1.575 1.1228071686300152 6.476652105890619 -28.92913600883027 0 0 0
78 0 6 1.05 6.547128676506452 5.588287417286864 -27.840021298184887 0 0 0
3 0 6 1.05 25.414545675484035 3.4780531804419126 -28.049064931783644 -1 0 0
73 0 6 1.05 4.30594291939605 7.6688766179885315 -27.82268102510473 0 0 0
8 0 6 1.05 2.1888996690481637 1.501645721618669 -27.702611116162704 0 0 0
7 0 8 -1.05 2.119162075357561 3.493861720456906 -27.87054872739986 0 0 0
74 0 8 -1.05 4.404669255866772 5.600952923453104 -27.78697710466825 0 0 0
69 0 8 -1.05 2.1811193988232223 7.633766945981938 -27.660678506689848 0 0 0
4 0 8 -1.05 0.1903609046202902 1.3539546898279422 -27.74656095534682 0 0 0
19 0 8 -1.05 6.609778691691142 3.512216289774932 -27.719504540461244 0 0 0
77 0 8 -1.05 6.405089313479311 7.668741592152837 -27.718815378531616 0 0 0
11 0 8 -1.05 4.267457916632193 1.599440219961056 -28.086048434007427 0 0 0
61 0 8 -1.05 0.060513908699087585 5.515919401121929 -27.59209013659726 0 0 0
82 0 8 -1.05 8.46590437893517 7.790698413677195 -29.812710112026245 0 0 0
29 0 7 1.575 10.706783781080786 3.358485780557518 -29.885891913037415 0 0 0
22 0 6 1.05 8.548646654656038 1.199215398214546 -29.844662797367352 0 0 0
26 0 8 -1.05 10.565420164949705 1.391135052487082 -29.714371971392932 0 0 0
88 0 8 -1.05 10.812770450624585 5.327181707549341 -29.798808416391157 0 0 0
25 0 8 -1.05 8.72829554796129 3.281369463350782 -29.785514345807822 0 0 0
81 0 8 -1.05 8.695177489523246 5.49814020853783 -27.693157240996193 0 0 0
85 0 7 1.575 9.694966892667297 6.6123368969611125 -28.986940643427094 0 0 0
23 0 7 1.575 8.596037548166088 3.4897348566933344 -27.87032691880587 0 0 0
28 0 7 1.575 10.749695555687618 1.2719509845842458 -27.786231206622524 0 0 0
27 0 8 -1.05 10.609648966030349 3.3077144565003884 -27.76549322227851 0 0 0
89 0 8 -1.05 10.792843164307758 7.773709351558514 -27.75522928559753 0 0 0
24 0 8 -1.05 8.730074551779577 1.5109364650751225 -27.61728699126814 0 0 0
99 0 6 1.05 14.961974244282525 7.644903839243648 -30.0922082654168 0 0 0
92 0 6 1.05 12.844313515002803 5.466757084589001 -30.258912196755645 0 0 0
32 0 8 -1.05 12.653070233046572 3.4511564755096527 -29.777052140853172 0 0 0
95 0 8 -1.05 12.883970732424247 7.5131004230395195 -29.960559062619247 0 0 0
96 0 8 -1.05 14.761427237756841 5.670182788190208 -29.65275243790007 0 0 0
38 0 8 -1.05 15.184994162099095 1.234803237550768 -29.663861130970332 0 0 0
35 0 7 1.575 13.952964774465174 2.412450746811827 -28.872581531287267 0 0 0
98 0 7 1.575 15.060280206117787 5.581784007588379 -27.78787305152552 0 0 0
93 0 7 1.575 12.819489342781697 7.706715254720795 -28.08903911007671 0 0 0
94 0 8 -1.05 12.88576527085177 5.851628964332299 -27.222881176719284 0 0 0
39 0 8 -1.05 14.89163843712391 3.593944888685585 -27.594381457402502 0 0 0
97 0 8 -1.05 14.75409874106027 7.61716714561031 -27.56977444584538 0 0 0
31 0 8 -1.05 12.829477614243139 1.277779207538538 -27.604518504447636 0 0 0
51 0 8 -1.05 21.35870383119415 1.2416858520374037 -27.448962083761167 0 0 0
117 0 8 -1.05 23.31132588443089 7.5639770249716225 -27.835105656471416 0 0 0
59 0 8 -1.05 23.412806195724762 3.333027026582848 -27.545574470958186 0 0 0
44 0 8 -1.05 17.160684853523087 1.3692626634639162 -27.56627266567553 0 0 0
109 0 8 -1.05 19.17919533224118 7.77307426692743 -27.48622541203268 0 0 0
114 0 8 -1.05 21.333156214665877 5.597189495833886 -27.653073665265744 0 0 0
47 0 8 -1.05 19.15596060928559 3.356665851222538 -27.594465694798444 0 0 0
48 0 6 1.05 19.25848304966959 1.2435229074810026 -27.677038909589466 0 0 0
113 0 6 1.05 21.24112253637954 7.67456015356112 -27.931468933871404 0 0 0
43 0 6 1.05 17.0553913714875 3.4550714264712634 -27.706384595320564 0 0 0
118 0 6 1.05 23.401611605763502 5.442757521765056 -27.783370828874745 0 0 0
105 0 7 1.575 18.17401107128171 6.608977831965672 -28.821965852440375 0 0 0
55 0 7 1.575 22.35817367440026 2.2213001727090265 -28.845680305745724 0 0 0
101 0 8 -1.05 17.049057978323667 5.633874110758312 -27.50690146199447 0 0 0
58 0 8 -1.05 23.64301050380149 1.060712763512278 -29.685331694315586 0 0 0
45 0 8 -1.05 17.26935708376036 3.2553914003810114 -29.695587648228152 0 0 0
116 0 8 -1.05 23.274468623649707 5.572953925534028 -29.7897358539253 0 0 0
108 0 8 -1.05 19.340665485070943 5.356987728334818 -29.655828083834532 0 0 0
46 0 8 -1.05 19.092869139574706 1.4263504874672812 -29.668306787222058 0 0 0
115 0 8 -1.05 21.423788984763064 7.3740460220107735 -29.90324100203784 0 0 0
52 0 8 -1.05 21.19117246706191 3.47340601552535 -29.686185022777032 0 0 0
112 0 7 1.575 21.31280658044926 5.429802271149554 -29.717453690833928 0 0 0
42 0 7 1.575 17.130122017450898 1.2819966769322035 -29.630761477446686 0 0 0
119 0 7 1.575 23.3922494601518 7.530987772753856 -29.866499024403144 0 0 0
49 0 7 1.575 19.214650153534457 3.3790596446963375 -29.633359194965962 0 0 0
102 0 8 -1.05 16.991925572952447 7.819128582512557 -29.67563786611265 0 0 0
138 0 8 -1.05 6.633976902875254 9.703708695301795 -29.82254175003542 0 0 0
129 0 7 1.575 2.3264081358334714 12.459110264955854 -29.959761449276282 0 0 0
122 0 6 1.05 25.332244138173383 9.666295671471767 -30.189066286719523 -1 0 0
132 0 8 -1.05 4.360621739228993 13.91889383868613 -27.725201309953924 0 0 0
126 0 8 -1.05 4.06569771742257 11.74881334937307 -29.97871772209894 0 0 0
125 0 8 -1.05 0.6341341587405717 11.53695490446236 -30.074019331651662 0 0 0
131 0 8 -1.05 4.268344377547754 9.815323338049735 -27.608743988375007 0 0 0
135 0 7 1.575 5.315856547744378 10.759125061529495 -28.98097571766835 0 0 0
123 0 7 1.575 0.06263613104159924 11.752795261677976 -28.16652728896347 0 0 0
128 0 6 1.05 2.2308066091423027 9.721897064049106 -27.866051928293476 0 0 0
127 0 8 -1.05 2.08902613508242 11.895480421298915 -27.954343955661205 0 0 0
124 0 8 -1.05 0.21294803414780597 9.820059422574268 -27.88871091957045 0 0 0
139 0 8 -1.05 6.46470457000663 11.92834330000503 -27.812562948305676 0 0 0
199 0 6 1.05 6.682647946247882 16.29124329432196 -29.94944925898727 0 0 0
192 0 6 1.05 4.084402566403636 15.79786627837553 -28.36839958417628 0 0 0
195 0 8 -1.05 4.650525543840361 16.629505608619723 -30.10542417105226 0 0 0
188 0 8 -1.05 2.1581228639267667 14.366153192551808 -30.22794488459205 0 0 0
196 0 8 -1.05 6.229091376637483 15.8288068929485 -27.942377678734623 0 0 0
182 0 8 -1.05 25.015886989156456 16.158736474077298 -30.337935649376146 -1 0 0
185 0 7 1.575 0.680441861597129 15.112708767761179 -29.23046723379867 0 0 0
198 0 7 1.575 6.3044648793937705 13.913148684178472 -27.659344583450046 0 0 0
193 0 6 1.05 2.856254614379451 16.18468209173586 -30.978538136033343 0 0 0
194 0 8 -1.05 6.345703061086183 13.899197876956128 -25.666150011869696 0 0 0
189 0 8 -1.05 1.9447751903824164 15.992995388134906 -27.967656606446937 0 0 0
197 0 8 -1.05 8.098107754609575 15.948767356619141 -25.5260047699617 0 0 0
181 0 8 -1.05 25.26978192848532 13.755523239723852 -28.113433993217154 -1 0 0
149 0 7 1.575 10.735917000926277 12.1111901110119 -29.879026765526106 0 0 0
142 0 6 1.05 8.610025900923612 9.753291044481314 -30.33334861008514 0 0 0
146 0 8 -1.05 10.452507941269888 10.180240257889642 -29.64283397431822 0 0 0
145 0 8 -1.05 8.77125965823141 12.158921627843009 -29.940012683682205 0 0 0
143 0 7 1.575 8.465901463322517 11.867489497602842 -28.087850785436288 0 0 0
148 0 7 1.575 10.681989339432874 9.795258477809769 -27.770590578436106 0 0 0
147 0 8 -1.05 10.472350727775618 12.035410673718145 -27.658766500445495 0 0 0
144 0 8 -1.05 8.670934969611464 10.066831587413837 -27.381500010082128 0 0 0
202 0 8 -1.05 8.708299073663678 16.200661688143818 -29.866090966501442 0 0 0
208 0 8 -1.05 10.850590653060705 14.136171657352978 -29.891200343271667 0 0 0
201 0 8 -1.05 8.323616561097511 13.829943913707577 -27.673045897530027 0 0 0
205 0 7 1.575 9.561513723306742 14.942560454347706 -28.705518083201962 0 0 0
209 0 8 -1.05 10.761150452305246 15.824352773379037 -27.470819991376647 0 0 0
158 0 8 -1.05 15.086520496764496 9.703793816540893 -29.7852060040759 0 0 0
152 0 8 -1.05 12.640836482736987 12.064652963163907 -29.58506532310464 0 0 0
151 0 8 -1.05 12.727895569298886 9.7097989729465 -27.73639504952269 0 0 0
155 0 7 1.575 13.918446174621835 10.858512210026719 -28.86099638683047 0 0 0
159 0 8 -1.05 14.982943622631005 11.868803908451039 -27.492628157989582 0 0 0
219 0 7 1.575 14.90302699530667 16.334563549748797 -29.583493836650444 0 0 0
212 0 6 1.05 12.948472710475825 14.044024203354594 -29.660640631631313 0 0 0
215 0 8 -1.05 12.904215425193868 16.159290373943772 -29.593393598188705 0 0 0
216 0 8 -1.05 14.911758638601068 14.400589134392686 -29.68821380570662 0 0 0
218 0 6 1.05 15.00305249781463 14.00359828269679 -27.71484407988075 0 0 0
213 0 7 1.575 12.806010482064648 16.176367217348112 -27.602274992738312 0 0 0
214 0 8 -1.05 12.932901533319857 14.16293746619182 -27.491419661503723 0 0 0
217 0 8 -1.05 14.893661698298011 16.13019338840243 -27.541475094263287 0 0 0
179 0 8 -1.05 23.48285132938405 11.752670476485772 -28.126191049582264 0 0 0
164 0 8 -1.05 17.122123459661882 9.867088174331593 -27.580944775046714 0 0 0
167 0 8 -1.05 19.008047774820636 11.760252585879995 -27.450624697277107 0 0 0
168 0 7 1.575 19.183574854276735 9.784505687084508 -27.717343753904935 0 0 0
163 0 7 1.575 17.009863710846542 11.903101962245517 -27.66986518517863 0 0 0
175 0 7 1.575 22.13118410241622 10.682505541270114 -29.25462022598972 0 0 0
171 0 8 -1.05 21.189997172330752 9.809878611289976 -27.76695930128953 0 0 0
165 0 8 -1.05 17.1101765790809 11.741634739809808 -29.59245477868317 0 0 0
166 0 8 -1.05 18.979584543383208 9.907201313782963 -29.630306217805455 0 0 0
172 0 8 -1.05 21.119310993327264 12.069432618261606 -30.06223554611839 0 0 0
162 0 7 1.575 17.029683350984087 9.761998339290571 -29.745665284013228 0 0 0
169 0 6 1.05 19.123144165152578 11.93101472161268 -29.895708144602775 0 0 0
178 0 8 -1.05 23.363976096032076 9.489482368189956 -30.069438393209353 0 0 0
237 0 8 -1.05 23.387455979173065 15.301796589377815 -26.867934917186396 0 0 0
229 0 8 -1.05 18.98314932038652 16.154781918604122 -27.47114923930868 0 0 0
234 0 8 -1.05 21.67311200333324 13.351091600499082 -26.77321553295555 0 0 0
233 0 6 1.05 20.806748852249957 17.78604036652672 -30.548202112991525 0 0 0
238 0 7 1.575 23.187006515425843 13.718177119371163 -28.09644782302444 0 0 0
225 0 7 1.575 17.93533400909392 15.1661491799369 -28.81768531257831 0 0 0
221 0 8 -1.05 17.085486222498798 13.907980418005668 -27.545428822326443 0 0 0
236 0 8 -1.05 22.764390478255613 14.454427219558472 -29.73726205278453 0 0 0
228 0 8 -1.05 19.402551077236726 13.970884355085607 -29.1514102421288 0 0 0
235 0 8 -1.05 21.079583403856002 15.991596413826556 -31.28465717290852 0 0 0
232 0 6 1.05 20.977543011836932 14.093523672653422 -30.54637003642821 0 0 0
239 0 6 1.05 23.03656498464814 16.12703035841607 -30.756736800488763 0 0 0
222 0 8 -1.05 16.87151366812125 16.46157296592954 -29.71647133673983 0 0 0
258 0 8 -1.05 6.854051348444651 18.33335570982445 -30.036973312012393 0 0 0
249 0 6 1.05 2.048724189124776 20.223095675317712 -30.457490166108588 0 0 0
319 0 6 1.05 6.4320792294662334 24.30591990586847 -29.651887532132818 0 0 0
242 0 6 1.05 24.998042901679202 18.140642980138626 -30.07178892469072 -1 0 0
312 0 6 1.05 4.3004319823539365 22.3785172593917 -29.811620547928413 0 0 0
252 0 8 -1.05 3.791316483546808 19.757398443772516 -29.518623117459693 0 0 0
315 0 8 -1.05 4.477356289989133 24.300868308334437 -30.30281281344718 0 0 0
246 0 8 -1.05 1.892745397498829 17.759360755735596 -30.22249696507845 0 0 0
308 0 8 -1.05 2.283507609989435 22.14552906489378 -29.95418485333745 0 0 0
316 0 8 -1.05 6.309665944022459 22.2503808195344 -29.781701513943535 0 0 0
245 0 8 -1.05 0.29959434483638303 19.927043795069103 -29.5466789200133 0 0 0
302 0 8 -1.05 0.0795066686704531 24.648039332454097 -29.746781225684853 0 0 0
251 0 8 -1.05 3.854969564634996 17.7684031299589 -27.6331257198513 0 0 0
255 0 7 1.575 5.086130222103398 18.360017219982666 -29.189914701914635 0 0 0
305 0 7 1.575 1.2745318694025325 23.38063888074409 -28.93517142193157 0 0 0
318 0 6 1.05 7.022006143784594 20.465393108761162 -29.555824917048724 0 0 0
243 0 7 1.575 0.15344280729073517 20.438093823708837 -27.693556203354696 0 0 0
313 0 7 1.575 3.673670517847528 0.17965171517213788 -29.28713217896308 0 1 0
248 0 7 1.575 1.8770733368600832 18.03742201190009 -28.327967970219927 0 0 0
247 0 8 -1.05 1.9797061918749688 19.72567963038883 -27.31434556963036 0 0 0
314 0 8 -1.05 4.137489918531964 22.181731751786664 -27.715068426004446 0 0 0
309 0 8 -1.05 2.42934141758307 24.75895493447548 -27.941428888706607 0 0 0
244 0 8 -1.05 25.410539993548614 17.87999359160849 -27.804745331826997 -1 0 0
259 0 8 -1.05 5.88855146387471 19.714577991397782 -27.892531965497835 0 0 0
317 0 8 -1.05 5.8729560958608085 24.708466765087444 -27.619155085757555 0 0 0
301 0 8 -1.05 0.21955468705995365 22.43457992684735 -27.560198742537562 0 0 0
322 0 8 -1.05 8.39142036856656 24.47366419074837 -28.781831278071895 0 0 0
269 0 6 1.05 10.762242179618156 20.44032004246636 -30.67786747772023 0 0 0
262 0 7 1.575 8.806299187764393 18.1817151188469 -29.879300343205276 0 0 0
264 0 8 -1.05 8.999414861337758 18.305922450144568 -27.91509364949484 0 0 0
266 0 8 -1.05 10.48319861443765 18.23288101927812 -30.847374063983327 0 0 0
329 0 8 -1.05 10.96160631236522 24.715666188096385 -27.70172267840738 0 0 0
328 0 8 -1.05 10.90767510207109 22.479500237454452 -30.429396698613655 0 0 0
267 0 8 -1.05 10.694513125941706 19.975778267832816 -26.246461355035205 0 0 0
268 0 6 1.05 11.199221670823867 16.39777549895769 -30.610702170003112 0 0 0
265 0 8 -1.05 8.995350747232052 20.16376418034933 -29.72234301687787 0 0 0
263 0 7 1.575 10.10396649352566 20.007257973036747 -28.09901720528904 0 0 0
321 0 8 -1.05 9.933392810032895 21.988570094608875 -27.743066816844557 0 0 0
325 0 7 1.575 10.039984058596158 23.484965108449863 -29.01893512325044 0 0 0
278 0 8 -1.05 14.969525174680728 18.31912770396037 -29.574164800843764 0 0 0
339 0 6 1.05 15.039378393044537 24.650668031551895 -29.92329850472722 0 0 0
332 0 6 1.05 12.847993520866048 22.875230771192083 -30.539487970975596 0 0 0
337 0 8 -1.05 14.82996117193647 24.592516286650902 -27.461798774793625 0 0 0
272 0 8 -1.05 11.896926676700472 20.19673764466281 -28.939154628657278 0 0 0
335 0 8 -1.05 12.989510808108802 24.711264742203063 -29.85776297218531 0 0 0
279 0 8 -1.05 14.847158237639372 20.552797926413884 -27.440639327936545 0 0 0
336 0 8 -1.05 14.566949223355902 22.591684470668824 -29.570990874353292 0 0 0
334 0 8 -1.05 12.92750543924805 22.856190267290188 -27.185375438681213 0 0 0
333 0 7 1.575 12.923988538122444 24.729377484592323 -27.96956498334992 0 0 0
271 0 8 -1.05 12.95466758335159 18.108080319107444 -27.461110470211683 0 0 0
275 0 7 1.575 13.691767210695454 19.463351960044086 -28.633366012125 0 0 0
338 0 7 1.575 14.918535259355819 22.570272829453625 -27.676222173948997 0 0 0
357 0 8 -1.05 23.4300213150256 24.521589113655445 -27.641450287563373 0 0 0
299 0 8 -1.05 23.626205894342718 20.33126867652971 -27.513080559435497 0 0 0
284 0 8 -1.05 17.10508468921846 18.366834768196558 -27.568981676025214 0 0 0
349 0 8 -1.05 19.20997897920082 24.575363701347648 -27.416351044849204 0 0 0
354 0 8 -1.05 21.407303759294475 22.455022307389516 -27.596746318107165 0 0 0
287 0 8 -1.05 19.150143143732212 20.347011284415032 -27.54065140364754 0 0 0
288 0 6 1.05 19.268630250275393 18.228439265845186 -27.651187961644908 0 0 0
353 0 6 1.05 21.284660854476254 24.616738701574427 -27.748656641943406 0 0 0
283 0 6 1.05 17.01585699409213 20.488045380273263 -27.60899946269517 0 0 0
358 0 6 1.05 23.483363930277562 22.458786198561665 -27.626961847105616 0 0 0
345 0 7 1.575 18.155677143729964 23.580222985039732 -28.745123459215804 0 0 0
295 0 7 1.575 22.41941838474616 19.42182330959838 -28.70523245040928 0 0 0
291 0 8 -1.05 21.382655272988632 18.40077637600065 -27.40256036327834 0 0 0
341 0 8 -1.05 16.935502750043543 22.574640665725745 -27.546179989430176 0 0 0
285 0 8 -1.05 17.244063657684926 20.308026486529513 -29.629913411639393 0 0 0
356 0 8 -1.05 23.334558608292514 22.51544918077615 -29.655050862216306 0 0 0
348 0 8 -1.05 19.379373809397638 22.390842263630976 -29.603051119226745 0 0 0
286 0 8 -1.05 19.095456625370648 18.4610708825644 -29.71348697351853 0 0 0
355 0 8 -1.05 21.57214679026974 24.388876680478504 -29.73218613316195 0 0 0
292 0 8 -1.05 21.14713971859779 20.442795617020604 -29.714003372768097 0 0 0
352 0 7 1.575 21.353849795584644 22.454610158118847 -29.632193036334737 0 0 0
282 0 7 1.575 16.9981437815594 18.402905933163563 -29.566927553986577 0 0 0
359 0 7 1.575 23.523630469817757 24.50422373487311 -29.659533793689064 0 0 0
289 0 7 1.575 19.169956262716354 20.463072211022705 -29.537619653104517 0 0 0
298 0 8 -1.05 22.85809095266596 18.064052469812754 -29.992826874386605 0 0 0
342 0 8 -1.05 17.044544782537447 24.76056850297506 -29.70453243855621 0 0 0
70 0 7 1.575 3.318071490010819 4.436907022833299 -26.746165760178744 0 0 0
71 0 8 -1.05 4.20045746460961 7.737860181120034 -25.522729099529432 0 0 0
80 0 8 -1.05 6.513571994288737 5.378879731526439 -25.582352370387717 0 0 0
364 0 7 1.575 1.1956844689448758 2.23444783509572 -24.591405112048594 0 0 0
416 0 7 1.575 7.4778319299478975 4.348955388288758 -22.65180529344027 0 0 0
412 0 7 1.575 5.388735040150098 6.539306011551525 -24.608026232581867 0 0 0
13 0 6 1.05 4.517151798439667 1.094740234187994 -26.185755815339263 0 0 0
366 0 6 1.05 2.1104920951696693 3.4305551864480837 -21.452553412728243 0 0 0
414 0 6 1.05 6.5059209143121395 7.427979355020781 -21.405547097642312 0 0 0
407 0 6 1.05 2.1976221817503796 5.441499749571937 -23.526494671345976 0 0 0
404 0 6 1.05 0.014639087348621353 7.551489775384518 -23.522903242350903 0 0 0
63 0 7 1.575 0.1180547372728304 5.4227506638573955 -25.626942659871684 0 0 0
370 0 7 1.575 4.301682313152388 3.2396052800415984 -23.628353619299016 0 0 0
373 0 6 1.05 6.497307988438269 1.2166394955301818 -23.809020922567008 0 0 0
362 0 7 1.575 0.08153705495632074 1.3874639887477263 -21.28871309622116 0 0 0
17 0 7 1.575 6.47363876892583 3.3609411744097994 -25.77433117845667 0 0 0
67 0 7 1.575 2.193611273383698 7.550451140075291 -25.681367615307515 0 0 0
410 0 7 1.575 4.386428817813468 5.312366964649105 -21.418074078545917 0 0 0
16 0 8 -1.05 6.483276487211289 1.360494938163207 -25.783996160087728 0 0 0
369 0 8 -1.05 4.216974930063985 3.3513891795994524 -21.473978987883537 0 0 0
411 0 8 -1.05 4.464207902436989 7.32960105020353 -21.28311773826397 0 0 0
405 0 8 -1.05 0.1381613922805902 5.496990036758156 -23.503760354846367 0 0 0
415 0 8 -1.05 6.521554949478253 7.635447721312625 -23.41860974285138 0 0 0
64 0 8 -1.05 0.20562728668572744 7.464656745442412 -25.578462431623436 0 0 0
409 0 8 -1.05 4.361418392850143 5.370381804700867 -23.39901346322219 0 0 0
365 0 8 -1.05 2.2256295649923805 1.3675978335810761 -20.98329762777091 0 0 0
372 0 8 -1.05 6.300469526236533 3.2476471343245095 -23.653281266739032 0 0 0
408 0 8 -1.05 2.3895957799526237 5.442625183904614 -21.257981822404464 0 0 0
413 0 8 -1.05 6.412980075469443 5.333397413678397 -21.343977379012255 0 0 0
14 0 8 -1.05 4.423448990833519 3.3251483230652066 -25.58253850144008 0 0 0
406 0 8 -1.05 2.1486919590465745 7.518496951062047 -23.63079810049652 0 0 0
371 0 8 -1.05 4.465900853865663 1.1921897120610176 -23.19492740749549 0 0 0
363 0 8 -1.05 0.07955879223051686 3.358276949515004 -21.149064269469765 0 0 0
66 0 8 -1.05 2.1825895222868748 5.5295119713161505 -25.583578818895482 0 0 0
367 0 8 -1.05 2.3363341337555 3.348421402744385 -23.47428339076482 0 0 0
10 0 8 -1.05 2.3489518234657343 1.136897027671075 -25.672547445955654 0 0 0
374 0 8 -1.05 6.217579649808897 1.126768655738833 -20.892342883327746 0 0 0
1 0 8 -1.05 0.002483936671339393 3.43890467330424 -25.489727060982958 0 0 0
403 0 8 -1.05 25.426372510796327 7.572604665614244 -21.360258563868427 -1 0 0
361 0 8 -1.05 0.12413465130596374 1.3312144076715775 -23.236388440602397 0 0 0
622 0 7 1.575 4.2798788649612165 1.4162133483186419 -21.260609964363304 0 0 0
658 0 7 1.575 1.1732951983705047 6.558601773138781 -20.26339523190169 0 0 0
20 0 7 1.575 7.5720021197370455 0.050475415573933057 -27.18677806072907 0 0 0
368 0 7 1.575 4.306058380389267 24.62304913703924 -23.516706094999645 0 -1 0
21 0 8 -1.05 8.48555987083829 3.5299719695729936 -25.582562241621755 0 0 0
417 0 8 -1.05 8.512821755926264 7.813210098541724 -21.38240562016822 0 0 0
375 0 8 -1.05 8.518279171816788 1.1204490098170135 -23.55675322303053 0 0 0
90 0 7 1.575 11.67685205392266 4.458599397521285 -26.758753780026428 0 0 0
378 0 7 1.575 9.614360719490927 2.309995616578034 -24.649668991289097 0 0 0
380 0 6 1.05 10.783730930941209 3.297648562707404 -21.491091808520686 0 0 0
421 0 7 1.575 10.635078480462301 5.496205440983733 -23.454416848688737 0 0 0
418 0 7 1.575 8.604856530388068 7.672649823885889 -23.473212574720108 0 0 0
83 0 6 1.05 8.589412438376971 5.604346672375401 -25.68711033749271 0 0 0
376 0 6 1.05 8.796966521356165 1.1613927002923727 -21.587129463360547 0 0 0
87 0 6 1.05 10.684251713368123 7.678456307033779 -25.716365799068505 0 0 0
419 0 8 -1.05 8.658463610480847 5.66651508201896 -23.396065716017045 0 0 0
84 0 8 -1.05 8.616289114611831 7.711434229909011 -25.422900841820258 0 0 0
379 0 8 -1.05 10.817938186802362 1.2311903700868605 -21.246070429058502 0 0 0
422 0 8 -1.05 10.721302271941385 5.420403775246976 -21.391563886609568 0 0 0
420 0 8 -1.05 10.639635142742593 7.511057708416366 -23.313831799074453 0 0 0
377 0 8 -1.05 8.633630267065413 3.2720688873206103 -21.520036551280917 0 0 0
86 0 8 -1.05 10.749731366715524 5.595973403712725 -25.42261231483156 0 0 0
381 0 8 -1.05 10.793247357536647 3.4876446896785125 -23.504492210971687 0 0 0
30 0 8 -1.05 10.823058922682163 1.3064762743291214 -25.702366584983146 0 0 0
672 0 7 1.575 9.716263750416427 6.699950943691818 -20.406970008731417 0 0 0
382 0 7 1.575 11.88810178780499 0.08368209014449543 -22.672889678522296 0 0 0
91 0 8 -1.05 12.709716238671769 7.750906304922902 -25.144824788055672 0 0 0
100 0 8 -1.05 15.150187816649153 5.541576616963308 -25.587343610607498 0 0 0
430 0 7 1.575 16.00655364201808 4.547404349285438 -22.320618309913833 0 0 0
426 0 7 1.575 13.324501904113864 5.919259882262844 -25.279870908428162 0 0 0
33 0 6 1.05 12.881412056328294 1.2471299159417992 -25.55632090010291 0 0 0
428 0 7 1.575 14.955838450917145 7.594801973794702 -21.121070275336038 0 0 0
384 0 7 1.575 12.866653539485696 3.50998117251267 -23.399411961734366 0 0 0
387 0 7 1.575 14.963862552317586 1.3369976120483895 -23.353674236953637 0 0 0
37 0 6 1.05 15.03885954861219 3.401766650687282 -25.59642547219051 0 0 0
424 0 6 1.05 12.815030917353804 5.536906203313366 -21.253329780238804 0 0 0
36 0 8 -1.05 14.946416141498036 1.334191872955212 -25.319501667393475 0 0 0
383 0 8 -1.05 12.817337154505537 3.5293388247941744 -21.329691865617345 0 0 0
425 0 8 -1.05 12.893778814379086 7.634804689444412 -21.065682980040723 0 0 0
429 0 8 -1.05 14.751101628267856 7.742595729289131 -23.051841224393215 0 0 0
423 0 8 -1.05 12.681704507137471 5.637001129887864 -23.340298764320895 0 0 0
386 0 8 -1.05 14.868342055250123 3.3871632907027225 -23.31566526610414 0 0 0
427 0 8 -1.05 14.92871982169863 5.6152325947530075 -21.061372266660506 0 0 0
34 0 8 -1.05 12.917813722870283 3.8375134715730046 -25.345054768143573 0 0 0
385 0 8 -1.05 12.965496637057282 1.5624346694435773 -23.277650863354385 0 0 0
388 0 8 -1.05 14.977842440778135 1.2611522632935295 -21.257439622151804 0 0 0
636 0 7 1.575 13.80563163388387 2.3322389377575714 -20.21919064394152 0 0 0
40 0 7 1.575 16.06295187734119 0.24526759109855406 -26.52292943312643 0 0 0
396 0 7 1.575 20.24077234576592 0.2849879502001241 -22.283246020732097 0 0 0
60 0 7 1.575 24.449909079124435 0.3274745130419749 -26.65064433454766 0 0 0
686 0 7 1.575 18.06933247079829 6.553203566858316 -20.069330841295635 0 0 0
650 0 7 1.575 22.31984225396916 2.3592364445012026 -20.11506043970941 0 0 0
402 0 8 -1.05 23.519760458527827 1.2579990736993172 -21.113081576204234 0 0 0
50 0 8 -1.05 19.32646084479921 1.1835676534367972 -25.366610294850048 0 0 0
395 0 8 -1.05 19.173106642984617 3.4282092887424134 -23.175949940625326 0 0 0
106 0 8 -1.05 19.155676401098642 5.66152659729713 -25.419029436249552 0 0 0
391 0 8 -1.05 17.127793369190968 3.46998326337807 -21.123530825120053 0 0 0
399 0 8 -1.05 21.357699564701335 1.3729235450849342 -23.363804212103496 0 0 0
434 0 8 -1.05 19.11939425830177 7.689159156762127 -23.341258974886696 0 0 0
54 0 8 -1.05 21.380458112749942 3.3592267517600285 -25.426835218128915 0 0 0
441 0 8 -1.05 23.307084599774228 5.467341954983931 -21.05098299305835 0 0 0
436 0 8 -1.05 19.25724235157066 5.425922424576202 -21.06112268865138 0 0 0
400 0 8 -1.05 23.357545890903644 3.3891353568796982 -23.420078344198522 0 0 0
393 0 8 -1.05 19.178844220889253 1.3936552094799841 -21.032189017410985 0 0 0
437 0 8 -1.05 21.293036939738666 5.527887600689226 -23.16186276951909 0 0 0
104 0 8 -1.05 17.17876753617509 7.647026218505077 -25.416459301338776 0 0 0
443 0 8 -1.05 23.326181803954466 7.776469131341276 -23.333355050233852 0 0 0
433 0 8 -1.05 17.12640987368795 5.654456663209958 -23.37837682318505 0 0 0
439 0 8 -1.05 21.24650164234563 7.47279495066306 -21.015480680854086 0 0 0
397 0 8 -1.05 21.148022954220774 3.506326914978611 -21.100927480788748 0 0 0
56 0 8 -1.05 23.36181851760113 1.3645548090763695 -25.418015972635146 0 0 0
438 0 7 1.575 21.280041673054 5.500739744646816 -21.199256056013553 0 0 0
107 0 7 1.575 19.20582048486468 7.680036787960813 -25.486983588468373 0 0 0
57 0 7 1.575 23.420634856114635 3.378378228735943 -25.572072569348453 0 0 0
390 0 6 1.05 17.042070468201516 1.3473597305139513 -21.214702473451602 0 0 0
401 0 6 1.05 23.429020819668096 1.3138639604165279 -23.38101548686342 0 0 0
398 0 6 1.05 21.282651080957372 3.4312952901592113 -23.38825510498971 0 0 0
103 0 7 1.575 17.11787802737015 5.583918723202919 -25.508812567835633 0 0 0
432 0 6 1.05 16.982911704725485 7.69752399719994 -23.391183364974697 0 0 0
435 0 6 1.05 19.18990369765043 5.563146150410609 -23.374672916130145 0 0 0
442 0 6 1.05 23.361145564286844 7.621563182074079 -21.288762372640516 0 0 0
394 0 7 1.575 19.1308970361054 3.4204671678209206 -21.224829919070714 0 0 0
53 0 7 1.575 21.324260709537107 1.2982702070857601 -25.48914628573796 0 0 0
440 0 7 1.575 22.350134351697594 6.516558164058101 -24.487033419704364 0 0 0
444 0 7 1.575 24.452370821287566 4.495955909753902 -22.336174160814306 0 0 0
392 0 7 1.575 18.135775995063707 2.3578776747000925 -24.451949936010465 0 0 0
120 0 8 -1.05 23.53417412531387 5.391726162226002 -25.488748900412826 0 0 0
111 0 8 -1.05 21.186419987253235 7.767216118650245 -25.317949277630497 0 0 0
110 0 7 1.575 20.251227634236496 4.487668183213502 -26.55917280545307 0 0 0
389 0 8 -1.05 16.987501030241567 1.2610784064106102 -23.27043237084843 0 0 0
431 0 8 -1.05 16.931406866580858 7.7500996469977155 -21.05251310959103 0 0 0
41 0 8 -1.05 17.076036390723697 3.5985708289047778 -25.41868430585915 0 0 0
140 0 7 1.575 7.506335135166546 8.754558567965365 -26.635756353692134 0 0 0
452 0 7 1.575 3.4142868154143917 8.400849227796385 -22.53494356939464 0 0 0
130 0 8 -1.05 2.2286224223899214 9.615957123739028 -25.632943876442862 0 0 0
458 0 8 -1.05 6.571329709001506 9.865980391911329 -21.066408383882404 0 0 0
448 0 7 1.575 0.8588897730434194 10.672742385244415 -24.75817646798703 0 0 0
133 0 7 1.575 4.26289258569254 9.724054440079744 -25.649500744498926 0 0 0
450 0 7 1.575 2.0288352313930385 12.59816522344521 -21.831139013337612 0 0 0
454 0 7 1.575 4.089852923978102 11.829722938265402 -23.526858849912745 0 0 0
457 0 6 1.05 6.381093940575762 9.706191624813703 -23.48617675310255 0 0 0
446 0 7 1.575 0.34333639717651016 9.530447263192753 -21.420926334082264 0 0 0
137 0 6 1.05 6.32698325520086 11.828832077652173 -25.76300148707438 0 0 0
136 0 8 -1.05 6.278713604483124 9.792158599108905 -25.50512104903354 0 0 0
453 0 8 -1.05 3.953651716649931 11.878427865659257 -21.140452645244746 0 0 0
449 0 8 -1.05 2.2544420921174573 9.043951053144825 -21.169177967825483 0 0 0
456 0 8 -1.05 6.025582323113492 11.845011224599165 -22.992514625894366 0 0 0