LAMMPS data file via write_data, version 29 Sep 2021, timestep = 0

2898 atoms
10 atom types
0 bonds
6 bond types
0 angles
6 angle types
0 dihedrals
2 dihedral types
0 impropers
2 improper types

0 25.44 xlo xhi
0 25.44 ylo yhi
-37.2184 95.7288 zlo zhi

Masses

1 12.011
2 1.008
3 15.9994
4 15.9994
5 1.008
6 55.845
7 55.845
8 15.9994
9 15.9994
10 1.008

Pair Coeffs # lj/cut/coul/cut

1 0.0988 3.31521
2 0.0161 2.4473
3 0.1463 3.04812
4 0.093 3.24287
5 0.0047 0.537925
6 9.0298e-07 4.9062
7 9.0298e-07 4.9062
8 0.1554 3.16554
9 0.1554 3.16554
10 0 0

Bond Coeffs # harmonic

1 361.8 1.105
2 652.57 1.218
3 383.13 1.351
4 563.51 0.973
5 554.135 1
6 0 2.08

Angle Coeffs # harmonic

1 51.617 106.55
2 65.93 123.65
3 65.262 109.49
4 115.745 122.1
5 118.817 130.25
6 30 109.47

Dihedral Coeffs # fourier

1 1 2.3 2 180
2 2 2.3 2 180 1.9 1 0

Improper Coeffs # cvff

1 10.5 -1 2
2 10.5 -1 2

Atoms # full

1 0 8 -1.05 19.375252 19.375252 43.44884799999999 0 0 0
2 0 8 -1.05 19.301582 21.495252 41.328847999999994 0 0 0
3 0 8 -1.05 21.495252 17.255252000000002 43.37517799999999 0 0 0
4 0 8 -1.05 19.301582 23.541581 43.37517799999999 0 0 0
5 0 8 -1.05 21.495252 19.301582 41.328847999999994 0 0 0
6 0 8 -1.05 23.541581 19.301582 43.37517799999999 0 0 0
7 0 8 -1.05 21.421582 21.421582 43.44884799999999 0 0 0
3024 4 7 1.575 15.098416999999998 21.458416999999997 47.652013000000004 0 0 0
3023 3 7 1.575 11.918417000000002 20.398417000000002 48.712013000000006 0 0 0
10 0 8 -1.05 17.255252000000002 23.541581 41.328847999999994 0 0 0
11 0 8 -1.05 23.615251999999998 23.615251999999998 43.44884799999999 0 0 0
12 0 8 -1.05 17.255252000000002 21.495252 43.37517799999999 0 0 0
13 0 8 -1.05 23.541581 17.255252000000002 41.328847999999994 0 0 0
14 2 7 1.575 19.338417 23.578416999999998 41.292013000000004 0 0 0
3022 3 7 1.575 9.798417 22.518417 46.592013 0 0 0
16 2 7 1.575 23.578416999999998 19.338417 41.292013000000004 0 0 0
17 2 6 1.05 23.578416999999998 17.218417000000002 43.41201299999999 0 0 0
3021 3 7 1.575 14.038416999999999 18.278417 46.592013 0 0 0
19 2 6 1.05 21.458416999999997 19.338417 43.41201299999999 0 0 0
3020 3 7 1.575 16.158417 24.638417 48.712013000000006 0 0 0
3019 0 8 -1.05 15.135251999999998 17.181582 53.97517800000001 0 0 0
22 2 7 1.575 17.218417000000002 21.458416999999997 41.292013000000004 0 0 0
23 2 6 1.05 17.218417000000002 23.578416999999998 43.41201299999999 0 0 0
24 2 6 1.05 19.338417 21.458416999999997 43.41201299999999 0 0 0
25 2 7 1.575 21.458416999999997 17.218417000000002 41.292013000000004 0 0 0
3018 0 8 -1.05 12.941582 17.181582 47.68884800000001 0 0 0
27 1 7 1.575 22.518417 22.518417 42.35201299999999 0 0 0
3017 0 8 -1.05 10.895252000000001 17.181582 49.735178000000005 0 0 0
3016 0 8 -1.05 8.701582 23.615251999999998 53.97517800000001 0 0 0
30 1 7 1.575 24.638417 20.398417000000002 44.47201299999999 0 0 0
31 1 7 1.575 20.398417000000002 24.638417 44.47201299999999 0 0 0
32 1 7 1.575 18.278417 18.278417 42.35201299999999 0 0 0
3015 0 8 -1.05 8.701582 19.375252 49.735178000000005 0 0 0
34 0 8 -1.05 23.541581 23.541581 39.13517699999999 0 0 0
35 0 8 -1.05 23.615251999999998 21.421582 41.25517800000001 0 0 0
36 0 8 -1.05 17.255252000000002 19.301582 37.088848 0 0 0
3014 0 8 -1.05 8.701582 21.421582 47.68884800000001 0 0 0
38 0 8 -1.05 23.615251999999998 19.375252 39.208848 0 0 0
3013 0 8 -1.05 8.701582 17.181582 51.928848 0 0 0
40 0 8 -1.05 21.421582 23.615251999999998 41.25517800000001 0 0 0
41 1 7 1.575 7.678417 7.678417 23.272013 0 0 0
3012 4 7 1.575 8.738417 19.338417 47.652013000000004 0 0 0
3011 4 7 1.575 12.978416999999999 23.578416999999998 47.652013000000004 0 0 0
44 1 7 1.575 3.4384170000000003 3.4384170000000003 23.272013 0 0 0
45 2 6 1.05 6.618416999999998 4.498416999999998 22.212013 0 0 0
46 2 6 1.05 0.258417 2.3784170000000002 22.212013 0 0 0
47 2 6 1.05 4.498416999999998 6.618416999999998 22.212013 0 0 0
48 2 6 1.05 2.3784170000000002 0.258417 22.212013 0 0 0
49 0 8 -1.05 2.3415820000000003 2.3415820000000003 22.175176999999998 0 0 0
50 0 8 -1.05 4.535251999999998 4.535251999999998 22.175176999999998 0 0 0
51 0 8 -1.05 2.415252 6.655251999999998 22.248848000000002 0 0 0
52 0 8 -1.05 0.295252 0.295252 22.175176999999998 0 0 0
53 0 8 -1.05 4.461582 6.655251999999998 24.295178000000003 0 0 0
54 0 8 -1.05 6.655251999999998 2.415252 22.248848000000002 0 0 0
55 0 8 -1.05 6.655251999999998 4.461582 24.295178000000003 0 0 0
56 0 8 -1.05 6.581580999999999 6.581580999999999 22.175176999999998 0 0 0
57 1 7 1.575 1.3184170000000002 1.3184170000000002 25.392013000000002 0 0 0
58 1 7 1.575 3.4384170000000003 7.678417 27.512012999999996 0 0 0
59 1 7 1.575 7.678417 3.4384170000000003 27.512012999999996 0 0 0
60 1 7 1.575 5.5584169999999995 5.5584169999999995 25.392013000000002 0 0 0
61 2 6 1.05 4.498416999999998 0.258417 24.332013000000003 0 0 0
62 2 6 1.05 2.3784170000000002 2.3784170000000002 28.572013000000005 0 0 0
63 2 6 1.05 6.618416999999998 6.618416999999998 28.572013000000005 0 0 0
64 2 6 1.05 2.3784170000000002 4.498416999999998 26.452012999999997 0 0 0
65 2 6 1.05 0.258417 6.618416999999998 26.452012999999997 0 0 0
66 2 7 1.575 0.258417 4.498416999999998 24.332013000000003 0 0 0
67 2 7 1.575 4.498416999999998 2.3784170000000002 26.452012999999997 0 0 0
68 2 6 1.05 6.618416999999998 0.258417 26.452012999999997 0 0 0
69 2 7 1.575 0.258417 0.258417 28.572013000000005 0 0 0
70 2 7 1.575 6.618416999999998 2.3784170000000002 24.332013000000003 0 0 0
71 2 7 1.575 2.3784170000000002 6.618416999999998 24.332013000000003 0 0 0
72 2 7 1.575 4.498416999999998 4.498416999999998 28.572013000000005 0 0 0
73 0 8 -1.05 6.581580999999999 0.295252 24.368848000000003 0 0 0
74 0 8 -1.05 4.461582 2.415252 28.535178000000002 0 0 0
75 0 8 -1.05 4.535251999999998 6.581580999999999 28.608848000000002 0 0 0
76 0 8 -1.05 0.295252 4.535251999999998 26.415178000000004 0 0 0
77 0 8 -1.05 6.655251999999998 6.655251999999998 26.488847999999997 0 0 0
78 0 8 -1.05 0.295252 6.581580999999999 24.368848000000003 0 0 0
79 0 8 -1.05 4.461582 4.461582 26.488847999999997 0 0 0
80 0 8 -1.05 2.3415820000000003 0.295252 28.608848000000002 0 0 0
81 0 8 -1.05 6.581580999999999 2.3415820000000003 26.415178000000004 0 0 0
82 0 8 -1.05 2.415252 4.461582 28.535178000000002 0 0 0
83 0 8 -1.05 6.581580999999999 4.535251999999998 28.608848000000002 0 0 0
84 0 8 -1.05 4.535251999999998 2.3415820000000003 24.368848000000003 0 0 0
85 0 8 -1.05 2.3415820000000003 6.581580999999999 26.415178000000004 0 0 0
86 0 8 -1.05 4.535251999999998 0.295252 26.415178000000004 0 0 0
87 0 8 -1.05 0.295252 2.3415820000000003 28.608848000000002 0 0 0
88 0 8 -1.05 2.3415820000000003 4.535251999999998 24.368848000000003 0 0 0
89 0 8 -1.05 2.415252 2.415252 26.488847999999997 0 0 0
90 0 8 -1.05 2.415252 0.2215820000000015 24.295178000000003 0 0 0
91 0 8 -1.05 4.461582 0.2215820000000015 22.248848000000002 0 0 0
92 0 8 -1.05 6.655251999999998 0.2215820000000015 28.535178000000002 0 0 0
93 0 8 -1.05 0.2215820000000015 4.461582 22.248848000000002 0 0 0
94 0 8 -1.05 0.2215820000000015 2.415252 24.295178000000003 0 0 0
95 0 8 -1.05 0.2215820000000015 6.655251999999998 28.535178000000002 0 0 0
96 0 8 -1.05 0.2215820000000015 0.2215820000000015 26.488847999999997 0 0 0
97 1 7 1.575 7.678417 7.678417 31.752012999999998 0 0 0
98 1 7 1.575 5.5584169999999995 1.3184170000000002 29.632013000000004 0 0 0
99 1 7 1.575 1.3184170000000002 5.5584169999999995 29.632013000000004 0 0 0
100 1 7 1.575 3.4384170000000003 3.4384170000000003 31.752012999999998 0 0 0
101 2 6 1.05 6.618416999999998 4.498416999999998 30.692012999999996 0 0 0
102 2 6 1.05 0.258417 2.3784170000000002 30.692012999999996 0 0 0
103 2 7 1.575 4.498416999999998 6.618416999999998 30.692012999999996 0 0 0
104 2 7 1.575 2.3784170000000002 0.258417 30.692012999999996 0 0 0
105 0 8 -1.05 2.3415820000000003 2.3415820000000003 30.655176999999995 0 0 0
106 0 8 -1.05 4.535251999999998 4.535251999999998 30.655176999999995 0 0 0
107 0 8 -1.05 2.415252 6.655251999999998 30.728847999999996 0 0 0
108 0 8 -1.05 0.295252 0.295252 30.655176999999995 0 0 0
109 0 8 -1.05 4.461582 6.655251999999998 32.775178 0 0 0
110 0 8 -1.05 6.655251999999998 2.415252 30.728847999999996 0 0 0
111 0 8 -1.05 6.655251999999998 4.461582 32.775178 0 0 0
112 0 8 -1.05 6.581580999999999 6.581580999999999 30.655176999999995 0 0 0
113 1 7 1.575 1.3184170000000002 1.3184170000000002 33.872013 0 0 0
114 1 7 1.575 3.4384170000000003 7.678417 35.992013 0 0 0
115 1 7 1.575 7.678417 3.4384170000000003 35.992013 0 0 0
116 1 7 1.575 5.5584169999999995 5.5584169999999995 33.872013 0 0 0
117 2 7 1.575 4.498416999999998 0.258417 32.812013 0 0 0
118 2 6 1.05 2.3784170000000002 4.498416999999998 34.932013 0 0 0
119 2 7 1.575 0.258417 6.618416999999998 34.932013 0 0 0
120 2 6 1.05 0.258417 4.498416999999998 32.812013 0 0 0
121 2 7 1.575 4.498416999999998 2.3784170000000002 34.932013 0 0 0
122 2 6 1.05 6.618416999999998 0.258417 34.932013 0 0 0
123 2 6 1.05 6.618416999999998 2.3784170000000002 32.812013 0 0 0
124 2 7 1.575 2.3784170000000002 6.618416999999998 32.812013 0 0 0
125 0 8 -1.05 6.581580999999999 0.295252 32.848848000000004 0 0 0
126 0 8 -1.05 4.461582 2.415252 37.015178000000006 0 0 0
127 0 8 -1.05 0.295252 4.535251999999998 34.895178 0 0 0
128 0 8 -1.05 6.655251999999998 6.655251999999998 34.968847999999994 0 0 0
129 0 8 -1.05 0.295252 6.581580999999999 32.848848000000004 0 0 0
130 0 8 -1.05 4.461582 4.461582 34.968847999999994 0 0 0
131 0 8 -1.05 6.581580999999999 2.3415820000000003 34.895178 0 0 0
132 0 8 -1.05 2.415252 4.461582 37.015178000000006 0 0 0
133 0 8 -1.05 4.535251999999998 2.3415820000000003 32.848848000000004 0 0 0
134 0 8 -1.05 2.3415820000000003 6.581580999999999 34.895178 0 0 0
135 0 8 -1.05 4.535251999999998 0.295252 34.895178 0 0 0
136 0 8 -1.05 2.3415820000000003 4.535251999999998 32.848848000000004 0 0 0
137 0 8 -1.05 2.415252 2.415252 34.968847999999994 0 0 0
138 0 8 -1.05 2.415252 0.2215820000000015 32.775178 0 0 0
139 0 8 -1.05 4.461582 0.2215820000000015 30.728847999999996 0 0 0
140 0 8 -1.05 6.655251999999998 0.2215820000000015 37.015178000000006 0 0 0
141 0 8 -1.05 0.2215820000000015 4.461582 30.728847999999996 0 0 0
142 0 8 -1.05 0.2215820000000015 2.415252 32.775178 0 0 0
143 0 8 -1.05 0.2215820000000015 6.655251999999998 37.015178000000006 0 0 0
144 0 8 -1.05 0.2215820000000015 0.2215820000000015 34.968847999999994 0 0 0
145 1 7 1.575 7.678417 7.678417 40.232013 0 0 0
146 1 7 1.575 5.5584169999999995 1.3184170000000002 38.112013 0 0 0
147 1 7 1.575 1.3184170000000002 5.5584169999999995 38.112013 0 0 0
148 1 7 1.575 3.4384170000000003 3.4384170000000003 40.232013 0 0 0
149 2 6 1.05 2.3784170000000002 2.3784170000000002 37.05201299999999 0 0 0
150 2 6 1.05 6.618416999999998 6.618416999999998 37.05201299999999 0 0 0
151 2 6 1.05 6.618416999999998 4.498416999999998 39.172013 0 0 0
152 2 7 1.575 0.258417 2.3784170000000002 39.172013 0 0 0
153 2 7 1.575 4.498416999999998 6.618416999999998 39.172013 0 0 0
154 2 6 1.05 2.3784170000000002 0.258417 39.172013 0 0 0
155 2 7 1.575 0.258417 0.258417 37.05201299999999 0 0 0
156 2 7 1.575 4.498416999999998 4.498416999999998 37.05201299999999 0 0 0
157 0 8 -1.05 4.535251999999998 6.581580999999999 37.088848 0 0 0
158 0 8 -1.05 2.3415820000000003 2.3415820000000003 39.13517699999999 0 0 0
159 0 8 -1.05 4.535251999999998 4.535251999999998 39.13517699999999 0 0 0
160 0 8 -1.05 2.3415820000000003 0.295252 37.088848 0 0 0
161 0 8 -1.05 2.415252 6.655251999999998 39.208848 0 0 0
162 0 8 -1.05 0.295252 0.295252 39.13517699999999 0 0 0
163 0 8 -1.05 6.581580999999999 4.535251999999998 37.088848 0 0 0
164 0 8 -1.05 4.461582 6.655251999999998 41.25517800000001 0 0 0
165 0 8 -1.05 6.655251999999998 2.415252 39.208848 0 0 0
166 0 8 -1.05 0.295252 2.3415820000000003 37.088848 0 0 0
167 0 8 -1.05 6.655251999999998 4.461582 41.25517800000001 0 0 0
168 0 8 -1.05 6.581580999999999 6.581580999999999 39.13517699999999 0 0 0
169 1 7 1.575 1.3184170000000002 1.3184170000000002 42.35201299999999 0 0 0
170 1 7 1.575 3.4384170000000003 7.678417 44.47201299999999 0 0 0
171 1 7 1.575 7.678417 3.4384170000000003 44.47201299999999 0 0 0
172 1 7 1.575 5.5584169999999995 5.5584169999999995 42.35201299999999 0 0 0
173 2 7 1.575 4.498416999999998 0.258417 41.292013000000004 0 0 0
174 2 7 1.575 2.3784170000000002 4.498416999999998 43.41201299999999 0 0 0
175 2 7 1.575 0.258417 6.618416999999998 43.41201299999999 0 0 0
176 2 6 1.05 0.258417 4.498416999999998 41.292013000000004 0 0 0
177 2 6 1.05 4.498416999999998 2.3784170000000002 43.41201299999999 0 0 0
178 2 6 1.05 6.618416999999998 0.258417 43.41201299999999 0 0 0
179 2 7 1.575 6.618416999999998 2.3784170000000002 41.292013000000004 0 0 0
180 2 6 1.05 2.3784170000000002 6.618416999999998 41.292013000000004 0 0 0
181 0 8 -1.05 6.581580999999999 0.295252 41.328847999999994 0 0 0
182 0 8 -1.05 0.295252 4.535251999999998 43.37517799999999 0 0 0
183 0 8 -1.05 6.655251999999998 6.655251999999998 43.44884799999999 0 0 0
184 0 8 -1.05 0.295252 6.581580999999999 41.328847999999994 0 0 0
185 0 8 -1.05 4.461582 4.461582 43.44884799999999 0 0 0
186 0 8 -1.05 6.581580999999999 2.3415820000000003 43.37517799999999 0 0 0
187 0 8 -1.05 4.535251999999998 2.3415820000000003 41.328847999999994 0 0 0
188 0 8 -1.05 2.3415820000000003 6.581580999999999 43.37517799999999 0 0 0
189 0 8 -1.05 4.535251999999998 0.295252 43.37517799999999 0 0 0
190 0 8 -1.05 2.3415820000000003 4.535251999999998 41.328847999999994 0 0 0
191 0 8 -1.05 2.415252 2.415252 43.44884799999999 0 0 0
192 0 8 -1.05 2.415252 0.2215820000000015 41.25517800000001 0 0 0
193 0 8 -1.05 4.461582 0.2215820000000015 39.208848 0 0 0
194 0 8 -1.05 0.2215820000000015 4.461582 39.208848 0 0 0
195 0 8 -1.05 0.2215820000000015 2.415252 41.25517800000001 0 0 0
196 0 8 -1.05 0.2215820000000015 0.2215820000000015 43.44884799999999 0 0 0
197 0 8 -1.05 23.541581 21.495252 37.088848 0 0 0
198 0 8 -1.05 17.255252000000002 17.255252000000002 39.13517699999999 0 0 0
199 0 8 -1.05 19.375252 23.615251999999998 39.208848 0 0 0
200 0 8 -1.05 19.301582 17.255252000000002 37.088848 0 0 0
201 0 8 -1.05 21.495252 21.495252 39.13517699999999 0 0 0
202 0 8 -1.05 19.301582 19.301582 39.13517699999999 0 0 0
203 0 8 -1.05 21.495252 23.541581 37.088848 0 0 0
204 2 7 1.575 21.458416999999997 21.458416999999997 37.05201299999999 0 0 0
205 2 6 1.05 17.218417000000002 17.218417000000002 37.05201299999999 0 0 0
206 2 6 1.05 19.338417 17.218417000000002 39.172013 0 0 0
207 2 7 1.575 21.458416999999997 23.578416999999998 39.172013 0 0 0
208 2 7 1.575 17.218417000000002 19.338417 39.172013 0 0 0
209 2 6 1.05 23.578416999999998 21.458416999999997 39.172013 0 0 0
210 2 6 1.05 23.578416999999998 23.578416999999998 37.05201299999999 0 0 0
211 2 7 1.575 19.338417 19.338417 37.05201299999999 0 0 0
212 1 7 1.575 20.398417000000002 20.398417000000002 40.232013 0 0 0
213 1 7 1.575 18.278417 22.518417 38.112013 0 0 0
214 1 7 1.575 22.518417 18.278417 38.112013 0 0 0
215 1 7 1.575 24.638417 24.638417 40.232013 0 0 0
216 0 8 -1.05 21.421582 17.181582 39.208848 0 0 0
217 0 8 -1.05 19.375252 17.181582 41.25517800000001 0 0 0
218 0 8 -1.05 17.181582 19.375252 41.25517800000001 0 0 0
219 0 8 -1.05 17.181582 21.421582 39.208848 0 0 0
220 0 8 -1.05 17.181582 17.181582 43.44884799999999 0 0 0
221 0 8 -1.05 19.375252 19.375252 34.968847999999994 0 0 0
222 0 8 -1.05 19.301582 21.495252 32.848848000000004 0 0 0
223 0 8 -1.05 21.495252 17.255252000000002 34.895178 0 0 0
224 0 8 -1.05 19.301582 23.541581 34.895178 0 0 0
225 0 8 -1.05 21.495252 19.301582 32.848848000000004 0 0 0
226 0 8 -1.05 19.375252 21.421582 37.015178000000006 0 0 0
227 0 8 -1.05 23.541581 19.301582 34.895178 0 0 0
228 0 8 -1.05 21.421582 21.421582 34.968847999999994 0 0 0
229 0 8 -1.05 17.255252000000002 23.541581 32.848848000000004 0 0 0
230 0 8 -1.05 23.615251999999998 23.615251999999998 34.968847999999994 0 0 0
231 0 8 -1.05 17.255252000000002 21.495252 34.895178 0 0 0
232 0 8 -1.05 21.421582 19.375252 37.015178000000006 0 0 0
233 0 8 -1.05 23.541581 17.255252000000002 32.848848000000004 0 0 0
234 2 7 1.575 19.338417 23.578416999999998 32.812013 0 0 0
235 2 7 1.575 23.578416999999998 19.338417 32.812013 0 0 0
236 2 6 1.05 23.578416999999998 17.218417000000002 34.932013 0 0 0
237 2 6 1.05 21.458416999999997 19.338417 34.932013 0 0 0
238 2 7 1.575 17.218417000000002 21.458416999999997 32.812013 0 0 0
239 2 6 1.05 17.218417000000002 23.578416999999998 34.932013 0 0 0
240 2 6 1.05 19.338417 21.458416999999997 34.932013 0 0 0
241 2 7 1.575 21.458416999999997 17.218417000000002 32.812013 0 0 0
242 1 7 1.575 22.518417 22.518417 33.872013 0 0 0
243 1 7 1.575 24.638417 20.398417000000002 35.992013 0 0 0
244 1 7 1.575 20.398417000000002 24.638417 35.992013 0 0 0
245 1 7 1.575 18.278417 18.278417 33.872013 0 0 0
246 0 8 -1.05 23.541581 23.541581 30.655176999999995 0 0 0
247 0 8 -1.05 23.615251999999998 21.421582 32.775178 0 0 0
248 0 8 -1.05 23.615251999999998 19.375252 30.728847999999996 0 0 0
249 0 8 -1.05 21.421582 23.615251999999998 32.775178 0 0 0
250 0 8 -1.05 17.255252000000002 17.255252000000002 30.655176999999995 0 0 0
251 0 8 -1.05 19.375252 23.615251999999998 30.728847999999996 0 0 0
252 0 8 -1.05 21.495252 21.495252 30.655176999999995 0 0 0
253 0 8 -1.05 19.301582 19.301582 30.655176999999995 0 0 0
254 2 7 1.575 19.338417 17.218417000000002 30.692012999999996 0 0 0
255 2 6 1.05 21.458416999999997 23.578416999999998 30.692012999999996 0 0 0
256 2 6 1.05 17.218417000000002 19.338417 30.692012999999996 0 0 0
257 2 6 1.05 23.578416999999998 21.458416999999997 30.692012999999996 0 0 0
258 1 7 1.575 20.398417000000002 20.398417000000002 31.752012999999998 0 0 0
259 1 7 1.575 18.278417 22.518417 29.632013000000004 0 0 0
260 1 7 1.575 22.518417 18.278417 29.632013000000004 0 0 0
261 1 7 1.575 24.638417 24.638417 31.752012999999998 0 0 0
262 0 8 -1.05 23.615251999999998 17.181582 37.015178000000006 0 0 0
263 0 8 -1.05 21.421582 17.181582 30.728847999999996 0 0 0
264 0 8 -1.05 19.375252 17.181582 32.775178 0 0 0
265 0 8 -1.05 17.181582 23.615251999999998 37.015178000000006 0 0 0
266 0 8 -1.05 17.181582 19.375252 32.775178 0 0 0
267 0 8 -1.05 17.181582 21.421582 30.728847999999996 0 0 0
268 0 8 -1.05 17.181582 17.181582 34.968847999999994 0 0 0
269 0 8 -1.05 19.375252 19.375252 26.488847999999997 0 0 0
270 0 8 -1.05 19.301582 21.495252 24.368848000000003 0 0 0
271 0 8 -1.05 17.255252000000002 19.301582 28.608848000000002 0 0 0
272 0 8 -1.05 21.495252 17.255252000000002 26.415178000000004 0 0 0
273 0 8 -1.05 19.301582 23.541581 26.415178000000004 0 0 0
274 0 8 -1.05 21.495252 19.301582 24.368848000000003 0 0 0
275 0 8 -1.05 23.541581 21.495252 28.608848000000002 0 0 0
276 0 8 -1.05 19.375252 21.421582 28.535178000000002 0 0 0
277 0 8 -1.05 23.541581 19.301582 26.415178000000004 0 0 0
278 0 8 -1.05 19.301582 17.255252000000002 28.608848000000002 0 0 0
279 0 8 -1.05 21.421582 21.421582 26.488847999999997 0 0 0
280 0 8 -1.05 17.255252000000002 23.541581 24.368848000000003 0 0 0
281 0 8 -1.05 23.615251999999998 23.615251999999998 26.488847999999997 0 0 0
282 0 8 -1.05 17.255252000000002 21.495252 26.415178000000004 0 0 0
283 0 8 -1.05 21.495252 23.541581 28.608848000000002 0 0 0
284 0 8 -1.05 21.421582 19.375252 28.535178000000002 0 0 0
285 0 8 -1.05 23.541581 17.255252000000002 24.368848000000003 0 0 0
286 2 7 1.575 21.458416999999997 21.458416999999997 28.572013000000005 0 0 0
287 2 7 1.575 19.338417 23.578416999999998 24.332013000000003 0 0 0
288 2 6 1.05 23.578416999999998 19.338417 24.332013000000003 0 0 0
289 2 7 1.575 17.218417000000002 17.218417000000002 28.572013000000005 0 0 0
290 2 6 1.05 23.578416999999998 17.218417000000002 26.452012999999997 0 0 0
291 2 7 1.575 21.458416999999997 19.338417 26.452012999999997 0 0 0
292 2 6 1.05 17.218417000000002 21.458416999999997 24.332013000000003 0 0 0
293 2 7 1.575 17.218417000000002 23.578416999999998 26.452012999999997 0 0 0
3010 0 8 -1.05 8.775252 19.301582 45.568848 0 0 0
295 2 6 1.05 19.338417 21.458416999999997 26.452012999999997 0 0 0
296 2 7 1.575 23.578416999999998 23.578416999999998 28.572013000000005 0 0 0
297 2 6 1.05 19.338417 19.338417 28.572013000000005 0 0 0
298 2 7 1.575 21.458416999999997 17.218417000000002 24.332013000000003 0 0 0
299 1 7 1.575 22.518417 22.518417 25.392013000000002 0 0 0
300 1 7 1.575 24.638417 20.398417000000002 27.512012999999996 0 0 0
301 1 7 1.575 20.398417000000002 24.638417 27.512012999999996 0 0 0
3009 4 6 1.05 10.858417000000001 17.218417000000002 47.652013000000004 0 0 0
3008 0 8 -1.05 10.821582000000001 19.301582 47.615177 0 0 0
304 1 7 1.575 18.278417 18.278417 25.392013000000002 0 0 0
305 0 8 -1.05 23.541581 23.541581 22.175176999999998 0 0 0
306 0 8 -1.05 23.615251999999998 21.421582 24.295178000000003 0 0 0
307 0 8 -1.05 23.615251999999998 19.375252 22.248848000000002 0 0 0
308 0 8 -1.05 21.421582 23.615251999999998 24.295178000000003 0 0 0
3007 0 8 -1.05 13.015251999999998 21.495252 47.615177 0 0 0
310 0 8 -1.05 17.255252000000002 17.255252000000002 22.175176999999998 0 0 0
311 0 8 -1.05 19.375252 23.615251999999998 22.248848000000002 0 0 0
3006 0 8 -1.05 15.061581 21.495252 45.568848 0 0 0
313 0 8 -1.05 21.495252 21.495252 22.175176999999998 0 0 0
3005 0 8 -1.05 10.895252000000001 21.421582 45.49517800000001 0 0 0
3004 0 8 -1.05 10.895252000000001 23.615251999999998 47.68884800000001 0 0 0
316 0 8 -1.05 19.301582 19.301582 22.175176999999998 0 0 0
317 2 6 1.05 19.338417 17.218417000000002 22.212013 0 0 0
318 2 6 1.05 21.458416999999997 23.578416999999998 22.212013 0 0 0
319 2 6 1.05 17.218417000000002 19.338417 22.212013 0 0 0
3003 0 8 -1.05 10.821582000000001 17.255252000000002 45.568848 0 0 0
321 2 6 1.05 23.578416999999998 21.458416999999997 22.212013 0 0 0
3002 0 8 -1.05 8.775252 17.255252000000002 47.615177 0 0 0
3001 0 8 -1.05 12.941582 23.615251999999998 49.735178000000005 0 0 0
324 1 7 1.575 20.398417000000002 20.398417000000002 23.272013 0 0 0
3000 0 8 -1.05 15.135251999999998 19.375252 47.68884800000001 0 0 0
2999 0 8 -1.05 15.135251999999998 21.421582 49.735178000000005 0 0 0
2998 0 8 -1.05 13.015251999999998 23.541581 45.568848 0 0 0
328 1 7 1.575 24.638417 24.638417 23.272013 0 0 0
329 0 8 -1.05 23.615251999999998 17.181582 28.535178000000002 0 0 0
330 0 8 -1.05 21.421582 17.181582 22.248848000000002 0 0 0
331 0 8 -1.05 19.375252 17.181582 24.295178000000003 0 0 0
2997 0 8 -1.05 12.941582 19.375252 45.49517800000001 0 0 0
333 0 8 -1.05 2.415252 8.701582 24.295178000000003 0 0 0
334 0 8 -1.05 4.461582 8.701582 22.248848000000002 0 0 0
335 0 8 -1.05 6.655251999999998 8.701582 28.535178000000002 0 0 0
336 1 7 1.575 7.678417 16.158417 23.272013 0 0 0
2996 0 8 -1.05 15.061581 23.541581 47.615177 0 0 0
2995 4 6 1.05 12.978416999999999 21.458416999999997 45.532013000000006 0 0 0
339 1 7 1.575 3.4384170000000003 11.918417000000002 23.272013 0 0 0
340 2 7 1.575 6.618416999999998 12.978416999999999 22.212013 0 0 0
341 2 7 1.575 0.258417 10.858417000000001 22.212013 0 0 0
342 2 6 1.05 4.498416999999998 15.098416999999998 22.212013 0 0 0
343 2 6 1.05 2.3784170000000002 8.738417 22.212013 0 0 0
344 0 8 -1.05 2.3415820000000003 10.821582000000001 22.175176999999998 0 0 0
345 0 8 -1.05 4.535251999999998 13.015251999999998 22.175176999999998 0 0 0
346 0 8 -1.05 2.415252 15.135251999999998 22.248848000000002 0 0 0
347 0 8 -1.05 0.295252 8.775252 22.175176999999998 0 0 0
348 0 8 -1.05 4.461582 15.135251999999998 24.295178000000003 0 0 0
349 0 8 -1.05 6.655251999999998 10.895252000000001 22.248848000000002 0 0 0
350 0 8 -1.05 6.655251999999998 12.941582 24.295178000000003 0 0 0
351 0 8 -1.05 6.581580999999999 15.061581 22.175176999999998 0 0 0
352 1 7 1.575 1.3184170000000002 9.798417 25.392013000000002 0 0 0
353 1 7 1.575 3.4384170000000003 16.158417 27.512012999999996 0 0 0
354 1 7 1.575 7.678417 11.918417000000002 27.512012999999996 0 0 0
355 1 7 1.575 5.5584169999999995 14.038416999999999 25.392013000000002 0 0 0
356 2 7 1.575 4.498416999999998 8.738417 24.332013000000003 0 0 0
357 2 7 1.575 2.3784170000000002 10.858417000000001 28.572013000000005 0 0 0
358 2 7 1.575 6.618416999999998 15.098416999999998 28.572013000000005 0 0 0
359 2 6 1.05 2.3784170000000002 12.978416999999999 26.452012999999997 0 0 0
360 2 7 1.575 0.258417 15.098416999999998 26.452012999999997 0 0 0
361 2 6 1.05 0.258417 12.978416999999999 24.332013000000003 0 0 0
362 2 7 1.575 4.498416999999998 10.858417000000001 26.452012999999997 0 0 0
363 2 6 1.05 6.618416999999998 8.738417 26.452012999999997 0 0 0
364 2 7 1.575 0.258417 8.738417 28.572013000000005 0 0 0
365 2 6 1.05 6.618416999999998 10.858417000000001 24.332013000000003 0 0 0
366 2 7 1.575 2.3784170000000002 15.098416999999998 24.332013000000003 0 0 0
367 2 6 1.05 4.498416999999998 12.978416999999999 28.572013000000005 0 0 0
368 0 8 -1.05 6.581580999999999 8.775252 24.368848000000003 0 0 0
369 0 8 -1.05 4.461582 10.895252000000001 28.535178000000002 0 0 0
370 0 8 -1.05 4.535251999999998 15.061581 28.608848000000002 0 0 0
371 0 8 -1.05 0.295252 13.015251999999998 26.415178000000004 0 0 0
372 0 8 -1.05 6.655251999999998 15.135251999999998 26.488847999999997 0 0 0
373 0 8 -1.05 0.295252 15.061581 24.368848000000003 0 0 0
374 0 8 -1.05 4.461582 12.941582 26.488847999999997 0 0 0
375 0 8 -1.05 2.3415820000000003 8.775252 28.608848000000002 0 0 0
376 0 8 -1.05 6.581580999999999 10.821582000000001 26.415178000000004 0 0 0
377 0 8 -1.05 2.415252 12.941582 28.535178000000002 0 0 0
378 0 8 -1.05 6.581580999999999 13.015251999999998 28.608848000000002 0 0 0
379 0 8 -1.05 4.535251999999998 10.821582000000001 24.368848000000003 0 0 0
380 0 8 -1.05 2.3415820000000003 15.061581 26.415178000000004 0 0 0
381 0 8 -1.05 4.535251999999998 8.775252 26.415178000000004 0 0 0
382 0 8 -1.05 0.295252 10.821582000000001 28.608848000000002 0 0 0
383 0 8 -1.05 2.3415820000000003 13.015251999999998 24.368848000000003 0 0 0
384 0 8 -1.05 2.415252 10.895252000000001 26.488847999999997 0 0 0
385 0 8 -1.05 0.2215820000000015 8.701582 26.488847999999997 0 0 0
386 0 8 -1.05 0.2215820000000015 12.941582 22.248848000000002 0 0 0
387 0 8 -1.05 0.2215820000000015 10.895252000000001 24.295178000000003 0 0 0
388 0 8 -1.05 0.2215820000000015 15.135251999999998 28.535178000000002 0 0 0
389 0 8 -1.05 2.415252 8.701582 32.775178 0 0 0
390 0 8 -1.05 4.461582 8.701582 30.728847999999996 0 0 0
391 0 8 -1.05 6.655251999999998 8.701582 37.015178000000006 0 0 0
392 1 7 1.575 7.678417 16.158417 31.752012999999998 0 0 0
393 1 7 1.575 5.5584169999999995 9.798417 29.632013000000004 0 0 0
394 1 7 1.575 1.3184170000000002 14.038416999999999 29.632013000000004 0 0 0
395 1 7 1.575 3.4384170000000003 11.918417000000002 31.752012999999998 0 0 0
396 2 7 1.575 6.618416999999998 12.978416999999999 30.692012999999996 0 0 0
397 2 6 1.05 0.258417 10.858417000000001 30.692012999999996 0 0 0
398 2 6 1.05 4.498416999999998 15.098416999999998 30.692012999999996 0 0 0
399 2 6 1.05 2.3784170000000002 8.738417 30.692012999999996 0 0 0
400 0 8 -1.05 2.3415820000000003 10.821582000000001 30.655176999999995 0 0 0
401 0 8 -1.05 4.535251999999998 13.015251999999998 30.655176999999995 0 0 0
402 0 8 -1.05 2.415252 15.135251999999998 30.728847999999996 0 0 0
403 0 8 -1.05 0.295252 8.775252 30.655176999999995 0 0 0
404 0 8 -1.05 4.461582 15.135251999999998 32.775178 0 0 0
405 0 8 -1.05 6.655251999999998 10.895252000000001 30.728847999999996 0 0 0
406 0 8 -1.05 6.655251999999998 12.941582 32.775178 0 0 0
407 0 8 -1.05 6.581580999999999 15.061581 30.655176999999995 0 0 0
408 1 7 1.575 1.3184170000000002 9.798417 33.872013 0 0 0
409 1 7 1.575 3.4384170000000003 16.158417 35.992013 0 0 0
410 1 7 1.575 7.678417 11.918417000000002 35.992013 0 0 0
411 1 7 1.575 5.5584169999999995 14.038416999999999 33.872013 0 0 0
412 2 6 1.05 4.498416999999998 8.738417 32.812013 0 0 0
413 2 6 1.05 2.3784170000000002 12.978416999999999 34.932013 0 0 0
414 2 6 1.05 0.258417 15.098416999999998 34.932013 0 0 0
415 2 7 1.575 0.258417 12.978416999999999 32.812013 0 0 0
416 2 7 1.575 4.498416999999998 10.858417000000001 34.932013 0 0 0
417 2 6 1.05 6.618416999999998 8.738417 34.932013 0 0 0
418 2 7 1.575 6.618416999999998 10.858417000000001 32.812013 0 0 0
419 2 7 1.575 2.3784170000000002 15.098416999999998 32.812013 0 0 0
420 0 8 -1.05 6.581580999999999 8.775252 32.848848000000004 0 0 0
421 0 8 -1.05 4.461582 10.895252000000001 37.015178000000006 0 0 0
422 0 8 -1.05 0.295252 13.015251999999998 34.895178 0 0 0
423 0 8 -1.05 6.655251999999998 15.135251999999998 34.968847999999994 0 0 0
424 0 8 -1.05 0.295252 15.061581 32.848848000000004 0 0 0
425 0 8 -1.05 4.461582 12.941582 34.968847999999994 0 0 0
426 0 8 -1.05 6.581580999999999 10.821582000000001 34.895178 0 0 0
427 0 8 -1.05 2.415252 12.941582 37.015178000000006 0 0 0
428 0 8 -1.05 4.535251999999998 10.821582000000001 32.848848000000004 0 0 0
429 0 8 -1.05 2.3415820000000003 15.061581 34.895178 0 0 0
430 0 8 -1.05 4.535251999999998 8.775252 34.895178 0 0 0
431 0 8 -1.05 2.3415820000000003 13.015251999999998 32.848848000000004 0 0 0
432 0 8 -1.05 2.415252 10.895252000000001 34.968847999999994 0 0 0
433 0 8 -1.05 0.2215820000000015 8.701582 34.968847999999994 0 0 0
434 0 8 -1.05 0.2215820000000015 12.941582 30.728847999999996 0 0 0
435 0 8 -1.05 0.2215820000000015 10.895252000000001 32.775178 0 0 0
436 0 8 -1.05 0.2215820000000015 15.135251999999998 37.015178000000006 0 0 0
437 0 8 -1.05 2.415252 8.701582 41.25517800000001 0 0 0
438 0 8 -1.05 4.461582 8.701582 39.208848 0 0 0
439 1 7 1.575 7.678417 16.158417 40.232013 0 0 0
440 1 7 1.575 5.5584169999999995 9.798417 38.112013 0 0 0
441 1 7 1.575 1.3184170000000002 14.038416999999999 38.112013 0 0 0
442 1 7 1.575 3.4384170000000003 11.918417000000002 40.232013 0 0 0
443 2 7 1.575 2.3784170000000002 10.858417000000001 37.05201299999999 0 0 0
444 2 6 1.05 6.618416999999998 15.098416999999998 37.05201299999999 0 0 0
445 2 7 1.575 6.618416999999998 12.978416999999999 39.172013 0 0 0
446 2 7 1.575 0.258417 10.858417000000001 39.172013 0 0 0