LAMMPS data file via write_data, version 10 Feb 2021, timestep = 40000

1161 atoms
15 atom types
36 bonds
7 bond types
36 angles
7 angle types
0 dihedrals
2 dihedral types
9 impropers
2 improper types

0 25.44 xlo xhi
0 25.44 ylo yhi
0 100 zlo zhi

Masses

1 12.011
2 1.008
3 15.9994
4 15.9994
5 1.008
6 55.845
7 55.845
8 15.9994
9 12.011
10 15.9994
11 15.9994
12 1.008
13 55.845
14 15.9994
15 1.008

Pair Coeffs # lj/charmm/coul/long

1 0.098 3.02906 0.098 3.02906
2 0.046 1.60362 0.046 1.60362
3 0.12 3.02906 0.12 2.49452
4 0.1921 3.14487 0.1921 3.14487
5 0.046 0.400014 0.046 0.400014
6 9.0298e-07 4.07222 0 0
7 9.0298e-07 4.07222 0 0
8 0.1554 3.16554 0 0
9 0.07 3.56359 0.07 3.56359
10 0.12 3.02906 0.12 3.02906
11 0.1554 3.1655 0 0
12 0 0 0 0
13 9.0298e-07 4.07222 0 0
14 0.1554 3.1655 0 0
15 0 0 0 0

Bond Coeffs # harmonic

1 348 1.096
2 750 1.22
3 230 1.4
4 545 0.96
5 238 1.1422
6 525 1.26
7 554.135 1

Angle Coeffs # charmm

1 55 115 0 0
2 39 119 0 0
3 47 105 0 0
4 50 123 210 2.262
5 45 116 0 0
6 100 128 70 2.2587
7 30 109.47 0 0

Dihedral Coeffs # charmm

1 3.45 2 180 1
2 2.05 2 180 1

Improper Coeffs # harmonic

1 75 0
2 67 0

Atoms # full

1 0 7 1.575 1.160444200273386 1.501116095303781 2.1164303666145106 0 0 0
2 0 7 1.575 7.561000938470092 7.494831626830851 7.816378012735443 0 0 0
3 0 7 1.575 5.326064713355977 1.3644408436677498 5.977900668080281 0 0 0
4 0 7 1.575 3.0446449637854243 7.496293271391114 4.4841966255481935 0 0 0
5 0 7 1.575 1.4072347441423114 5.359903896777562 6.4318870907603465 0 0 0
6 0 7 1.575 7.36997441583155 3.51447242201081 4.135280359629214 0 0 0
7 0 7 1.575 5.539390803861476 6.630834682047962 1.584903107256127 0 0 0
8 0 7 1.575 3.5622828064983647 3.439803150790986 8.150386316003061 0 0 0
9 0 7 1.575 4.028607735101808 0.5384910268513308 1.3492259496923178 0 0 0
10 0 6 1.05 2.3219322607238917 2.443355549761848 5.343615606783813 0 0 0
11 0 6 1.05 6.219918651965054 6.604280691522487 4.846013464696392 0 0 0
12 0 6 1.05 6.766162896265325 4.6341112429798805 6.917199252384797 0 0 0
13 0 7 1.575 2.3140386112593307 4.396528011547547 3.285212890428578 0 0 0
16 0 7 1.575 0.25266383034410866 4.333077463413713 1.5545842569716177 0 0 0
17 0 7 1.575 3.9839941148728175 2.269042674015607 3.322899765765915 0 0 0
18 0 7 1.575 4.541781423930148 6.532098433926372 7.038118897958383 0 0 0
20 0 7 1.575 6.637318464096544 0.7934026992825135 2.9306341467055104 0 0 0
21 0 6 1.05 0.29252178860808054 8.518188897137213 5.6982980358104545 0 0 0
22 0 7 1.575 5.3653790334837055 3.553625625331149 1.7774794177897506 0 0 0
23 0 7 1.575 2.1109690973456954 6.627054456938131 1.5103045431501703 0 0 0
24 0 7 1.575 4.526631479111814 4.374115396412364 5.207904270328902 0 0 0
27 0 8 -1.05 4.25665044067547 2.523174293328382 5.1202048023868745 0 0 0
28 0 8 -1.05 4.288700364634656 6.449387651030543 5.1787826362548826 0 0 0
29 0 8 -1.05 0.33654123908926004 4.387157382977453 7.484282027303554 0 0 0
30 0 8 -1.05 0.2183560795154096 4.5537594261819105 3.336111412951003 0 0 0
31 0 8 -1.05 6.579197215447879 6.609824706280922 3.0728817114824714 0 0 0
32 0 8 -1.05 2.2281707453779704 2.5595550161209157 7.2205948000376 0 0 0
34 0 8 -1.05 0.26875007911099125 6.655154549234998 1.6347207538834092 0 0 0
35 0 8 -1.05 4.2046876456001865 4.229706019416431 3.251773834631388 0 0 0
36 0 8 -1.05 4.487099825691233 4.46330885945109 7.009755847903813 0 0 0
37 0 8 -1.05 6.130851173567614 0.46360967277016507 4.678504133086224 0 0 0
38 0 8 -1.05 2.2463336531960985 0.5618856170874237 5.282984461043713 0 0 0
39 0 8 -1.05 2.5830825628145386 6.350958603754356 7.26672900868546 0 0 0
40 0 8 -1.05 6.275236580639521 2.5840183833324497 3.001733174557542 0 0 0
41 0 8 -1.05 0.22539603557706422 0.42410192978721944 3.272784982218906 0 0 0
42 0 8 -1.05 0.49424040688930465 0.5459738187340739 7.3562746828457435 0 0 0
43 0 8 -1.05 2.256171580187814 4.393772761786097 5.149564996091629 0 0 0
44 0 8 -1.05 6.29642047606704 4.505187377604523 5.017715253451976 0 0 0
46 0 8 -1.05 4.223048197494446 2.3077024131380703 1.4082616812318873 0 0 0
47 0 8 -1.05 6.5208190941276465 2.2902855675266247 6.895075394498466 0 0 0
48 0 8 -1.05 2.117497754466081 6.554080363718832 3.404819710853738 0 0 0
49 0 8 -1.05 3.961718168576721 0.5046106678778847 3.2178338531283677 0 0 0
50 0 8 -1.05 4.4000432962287235 0.363070342096319 7.081102760221715 0 0 0
51 0 8 -1.05 0.2497093135166908 2.4866975264902855 5.3931980802394826 0 0 0
52 0 8 -1.05 0.3605844005632474 6.318087715347101 5.40165862369594 0 0 0
53 0 8 -1.05 1.9228594720561798 4.807099156597558 1.543605462915921 0 0 0
55 0 8 -1.05 2.222810782606795 2.5734139584987066 3.2770246276154062 0 0 0
56 0 8 -1.05 6.4146401165769085 6.411853051203769 6.860503243564636 0 0 0
113 0 8 -1.05 5.836444805178545 5.0222932179412485 1.0092378383125786 0 0 0
114 0 8 -1.05 3.82184846355674 6.892752568530158 1.3517328983518113 0 0 0
115 0 8 -1.05 0.18836303418413888 2.632327923766286 1.3033959772248456 0 0 0
116 0 8 -1.05 2.0991224511097704 0.3867098566026073 1.2365324674468803 0 0 0
388 0 7 1.575 1.0543192364592349 9.699870053635669 2.553095174030049 0 0 0
390 0 7 1.575 5.379342493693575 9.43403592965937 6.044561532619755 0 0 0
393 0 7 1.575 7.234257313581412 11.634147271606333 4.197066013462058 0 0 0
395 0 7 1.575 3.5850451745886067 11.880098131335446 8.103443387757043 0 0 0
396 0 7 1.575 3.7989064754459134 8.80080933340992 1.602129349723479 0 0 0
397 0 6 1.05 2.3110124300993764 10.256715865062151 5.488154599608278 0 0 0
404 0 7 1.575 4.47531324053293 10.367247726730787 3.4893169608940218 0 0 0
406 0 6 1.05 2.145446311514399 8.166369434739956 7.376593221509708 0 0 0
407 0 7 1.575 6.662499186246924 8.850023625325798 3.0466086147903635 0 0 0
409 0 7 1.575 3.9761285821822328 12.23022293476742 1.5969430724604217 0 0 0
413 0 8 -1.05 5.748578749679722 8.397842401957897 1.5940827098980628 0 0 0
414 0 8 -1.05 4.393618887054821 10.612968397040078 5.267476555028304 0 0 0
419 0 8 -1.05 2.4680452878748795 10.851166532478377 7.24565177278294 0 0 0
424 0 8 -1.05 6.2942547666636575 8.561687103451602 4.851200904821217 0 0 0
425 0 8 -1.05 2.1675895443316318 8.444473985619123 5.571618896552683 0 0 0
427 0 8 -1.05 6.232817316781566 10.581589226912437 3.3514934753065893 0 0 0
428 0 8 -1.05 0.21346021913885163 8.580141934024374 3.6813091755108656 0 0 0
429 0 8 -1.05 0.30702213617516944 8.242641904821832 7.5568262663706784 0 0 0
433 0 8 -1.05 4.072398475390833 10.52285670910697 1.7165955288563186 0 0 0
434 0 8 -1.05 6.566709505449647 10.410449340059252 6.836211071505373 0 0 0
436 0 8 -1.05 3.9213629897430935 8.66657042547723 3.493190751682944 0 0 0
437 0 8 -1.05 4.537869335058475 8.417690719125844 7.160155448201542 0 0 0
438 0 8 -1.05 0.2469211619811672 10.672903852408108 5.81701706183574 0 0 0
442 0 8 -1.05 1.9389222051679427 10.744164189475796 3.7230232597394024 0 0 0
502 0 8 -1.05 0.033968188124778996 10.858883601672234 1.5771034557535473 0 0 0
503 0 8 -1.05 2.0447333348101515 8.730366305649577 1.578811219046538 0 0 0
422 0 8 -1.05 4.034400151193375 12.369021793893506 3.541962176664643 0 0 0
272 0 7 1.575 0.29070427275948635 6.570427078708803 3.63354869907836 1 0 0
144 0 7 1.575 8.23673412971173 1.8937263572594578 6.759008968000132 0 0 0
531 0 7 1.575 8.285956408749126 10.279305587324174 6.719527475689952 0 0 0
14 0 7 1.575 8.278049923869201 6.234181529298285 3.0198407980628965 0 0 0
15 0 7 1.575 0.48626766904256874 2.384237001953103 7.296275503840163 0 0 0
402 0 7 1.575 0.732169983649935 10.978753782666251 7.5041721663204095 0 0 0
400 0 7 1.575 2.1631597391696418 12.498474221916611 3.5502183704333903 0 0 0
171 0 8 -1.05 8.312195118370877 0.13357520347464677 6.593940745098026 0 0 0
159 0 8 -1.05 8.291970563092162 4.478005813011267 3.048407195093506 0 0 0
19 0 6 1.05 2.372898705718343 0.13012543341328853 7.177133604686904 0 0 0
170 0 8 -1.05 8.398187459285811 0.7312428379541099 2.9438242622549495 0 0 0
557 0 8 -1.05 8.36915992265215 8.746641909856372 3.1651134402937977 0 0 0
26 0 8 -1.05 5.899953115887428 0.25472533339500203 1.4879737080067188 0 0 0
795 0 6 1.05 0.2874828401701759 0.5266865766386509 5.399434563345943 0 1 0
411 0 7 1.575 4.560308238479976 12.458135921102649 5.195446701766828 0 0 0
558 0 8 -1.05 8.4815948908225 8.532683338952635 6.729491650401813 0 0 0
567 0 8 -1.05 8.492488571221916 10.756704666985174 5.018003941697602 0 0 0
180 0 8 -1.05 8.404174534212396 2.452160204691495 5.101726793044099 0 0 0
431 0 8 -1.05 6.267638594426309 12.678311003216113 5.185373189615459 0 0 0
850 0 6 1.05 6.743829889095597 0.09015752059331733 10.549695491476362 0 1 0
440 0 8 -1.05 2.1910477926793184 12.6119742405966 1.7981483236726143 0 0 0
631 0 8 -1.05 8.611502982737145 10.858065397529296 1.188885045991455 0 0 0
163 0 8 -1.05 8.985032597117408 6.2347140423319045 1.4107053222975037 0 0 0
130 0 7 1.575 9.464385804757729 1.660251022587427 1.8267990243206071 0 0 0
131 0 7 1.575 16.305224217040298 7.721433380754276 7.848467126595309 0 0 0
132 0 7 1.575 14.098226076421307 1.236098541110002 5.760339859313329 0 0 0
133 0 7 1.575 11.811686606778618 7.370903192210938 4.184057689725743 0 0 0
134 0 7 1.575 9.695421865337467 5.388707417401586 5.841417431073084 0 0 0
135 0 7 1.575 16.525187068380305 3.751446940123223 4.212810377890773 0 0 0
136 0 7 1.575 15.587770169921894 6.451980115482469 1.5337854564253066 0 0 0
137 0 7 1.575 11.84022334174406 3.2007259071583847 7.623215999979258 0 0 0
138 0 7 1.575 13.539517357353288 0.26717534657471104 1.3614874831884902 0 0 0
139 0 6 1.05 10.1916914242881 2.6328123632550455 4.849092062574937 0 0 0
140 0 6 1.05 14.932240361796623 6.58438437829106 5.005540008045256 0 0 0
141 0 6 1.05 15.751199718188065 4.958492671492182 6.922667822496673 0 0 0
142 0 7 1.575 11.308967277015984 4.701101361864723 3.126126561077384 0 0 0
145 0 7 1.575 9.032593003891018 4.40756351338985 1.2929450182108662 0 0 0
146 0 7 1.575 12.309066577682652 1.881310095224397 3.13050172259262 0 0 0
147 0 7 1.575 12.472352514406422 5.931487049097364 6.762799256270659 0 0 0
148 0 6 1.05 11.03582820528806 0.5269485516253044 6.591197429145121 0 0 0
149 0 7 1.575 15.846021385395034 1.1665264868950251 2.994075962030959 0 0 0
150 0 6 1.05 8.97279921491468 8.390818797356458 4.895405440270496 0 0 0
151 0 7 1.575 14.166706830437803 3.6281610522264636 1.9664862725475722 0 0 0
152 0 7 1.575 10.668171854960596 6.895651140939407 1.2882529962398817 0 0 0
153 0 7 1.575 13.504776738689738 3.996539439097018 4.974369845644627 0 0 0
156 0 8 -1.05 13.105369260603533 2.290406296897755 4.693377389654889 0 0 0
157 0 8 -1.05 12.960477209460752 6.4295357697520386 5.182515311046235 0 0 0
158 0 8 -1.05 8.640433979885701 4.488607923141662 6.841086845834415 0 0 0
160 0 8 -1.05 15.82839145678296 6.493318854107186 3.3505989321257705 0 0 0
161 0 8 -1.05 10.799299783320379 2.299989628319538 6.565639742573349 0 0 0
164 0 8 -1.05 13.059672837137624 4.456937402700058 3.269399068560268 0 0 0
165 0 8 -1.05 12.857309770038906 4.259727828252566 6.610531517555486 0 0 0
166 0 8 -1.05 15.209282111402631 0.6049291132985978 4.535449966326258 0 0 0
168 0 8 -1.05 10.820951030560511 6.337943340990653 6.871197267529204 0 0 0
169 0 8 -1.05 15.559906458455417 2.87844488922023 3.0126210263903808 0 0 0
172 0 8 -1.05 10.707194905517369 4.397300081958663 4.7687232783828275 0 0 0
173 0 8 -1.05 15.146103990491733 4.468475878318381 5.161074914205857 0 0 0
175 0 8 -1.05 13.176005993177219 2.244218542763946 1.6804807513797702 0 0 0
176 0 8 -1.05 15.159976783792759 2.196828011815582 6.815105455380783 0 0 0
177 0 8 -1.05 11.051227930871056 6.403600117881162 2.9911508841576895 0 0 0
178 0 8 -1.05 12.77444032575785 0.21735194243034447 2.9806043087525933 0 0 0
179 0 8 -1.05 12.905941997287071 0.4102482945782693 6.673397630061136 0 0 0
181 0 8 -1.05 8.844929774161375 6.459552095738267 4.750067789263113 0 0 0
182 0 8 -1.05 10.76227983112975 4.387932965869628 1.5408340657066342 0 0 0
184 0 8 -1.05 10.661637711886158 2.2614022096145234 3.176545166448601 0 0 0
185 0 8 -1.05 15.46522609773663 6.653003722094253 6.737057350932065 0 0 0
242 0 8 -1.05 14.78216739754308 5.008124745635497 1.2656335618415626 0 0 0
243 0 8 -1.05 12.392916346809425 7.054048689468394 0.7739787039205194 0 0 0
244 0 8 -1.05 8.546170692333776 2.844098546439291 0.9618498159333676 0 0 0
245 0 8 -1.05 10.35029015547716 0.41332232727564544 1.0369239899277578 0 0 0
517 0 7 1.575 9.433508041348695 9.708924078410693 2.134860574986471 0 0 0
519 0 7 1.575 14.254380924436486 9.67802858264844 5.613162823431071 0 0 0
522 0 7 1.575 16.591774134330052 11.509319681099615 3.959702420278624 0 0 0
524 0 7 1.575 11.994927452534823 11.930933041409856 7.402531828359278 0 0 0
525 0 7 1.575 13.270528228664537 8.32092683414004 1.3875486754258577 0 0 0
526 0 6 1.05 10.270127360125022 11.262768718817512 4.780934292237486 0 0 0
533 0 7 1.575 12.410688639790818 10.008416614064142 3.109233346369588 0 0 0
535 0 6 1.05 11.208838662407848 9.122287104594525 6.5352532336019005 0 0 0
536 0 7 1.575 15.854630829893363 8.672060576978657 3.0826246398907258 0 0 0
538 0 7 1.575 14.797854783259776 10.978381672474619 1.4341310673466532 0 0 0
540 0 7 1.575 13.560741005227653 12.384509571167177 4.5945200245706115 0 0 0
542 0 8 -1.05 15.06404084222999 8.120967779007252 1.522086069235609 0 0 0
543 0 8 -1.05 13.308162248929504 10.621470991596865 4.508483204995551 0 0 0
548 0 8 -1.05 10.909271146236023 10.925107909010693 6.46937033590839 0 0 0
553 0 8 -1.05 15.289849533804647 8.63252286192391 4.720230413562426 0 0 0
554 0 8 -1.05 10.747632988018935 8.418524003428628 5.026445509786858 0 0 0
556 0 8 -1.05 15.7541072707617 10.468535705935478 2.813794225677991 0 0 0
562 0 8 -1.05 13.358241438816142 10.093425098304817 1.4830636987995187 0 0 0
563 0 8 -1.05 15.393686217226902 10.67155744887309 6.677864126613885 0 0 0
565 0 8 -1.05 12.81304596651783 8.327247484254563 3.1615700242560902 0 0 0
566 0 8 -1.05 13.077252911954794 8.952638456626335 6.649239458219414 0 0 0
571 0 8 -1.05 10.771836033575063 10.560325197742584 3.143675357609237 0 0 0
632 0 8 -1.05 10.443678380072685 8.540977561079083 1.3811972497645653 0 0 0
532 0 7 1.575 8.760499159632854 12.483399787651782 1.489594951259737 0 0 0
155 0 8 -1.05 15.200589438155756 0.5790328541681314 1.5998601338088403 0 0 0
560 0 8 -1.05 15.268645778589443 12.437960868770162 4.790457860855747 0 0 0
273 0 7 1.575 16.858253846390795 2.1429750392344094 6.841154759903876 0 0 0
167 0 8 -1.05 10.6315438315441 0.04230600363866664 4.8944234234107755 0 0 0
174 0 8 -1.05 13.143521570076754 6.583290007307892 8.25846750598276 0 0 0
660 0 7 1.575 17.20452497703106 10.595502933363711 6.890354030854513 0 0 0
657 0 6 1.05 23.52670846755633 12.39500767281688 7.605454633001399 0 0 0
143 0 7 1.575 17.605680231966574 6.425995220004313 3.6158870754610293 0 0 0
259 0 7 1.575 18.633960023386784 1.6277144272475075 2.3006554075522097 0 0 0
261 0 7 1.575 22.737031553495946 1.503610982530803 6.31540274171612 0 0 0
262 0 7 1.575 20.861391361309746 7.614670494207835 4.597820027007246 0 0 0
263 0 7 1.575 18.76274824479854 5.482103989406135 6.37086477292983 0 0 0
264 0 7 1.575 24.66848923290096 3.6292267673131176 4.518050574093601 0 0 0
265 0 7 1.575 23.88241502283743 6.618990191861058 1.6881448963116774 0 0 0
267 0 7 1.575 21.75138871235435 0.6170243156449134 1.5379013004518887 0 0 0
268 0 6 1.05 19.258129471554994 2.4846668739842923 5.341882288971477 0 0 0
269 0 6 1.05 23.629926841842522 6.489692953407678 5.532921908692423 0 0 0
270 0 6 1.05 23.71869593582531 4.414568419570131 7.4788493383816945 0 0 0
271 0 7 1.575 19.594941841359446 4.606059284273663 3.5115868440856284 0 0 0
274 0 7 1.575 17.876899314575073 4.552687882200282 1.118612142068642 0 0 0
275 0 7 1.575 21.40052865428495 2.461363962284134 3.6402965321868597 0 0 0
276 0 7 1.575 21.770596423891803 6.7475473341859695 7.642006180520937 0 0 0
277 0 6 1.05 19.808191586009222 0.8199818377378012 7.174978285994417 0 0 0
278 0 7 1.575 23.941842524507276 0.7835640969130797 3.38950069801054 0 0 0
279 0 6 1.05 17.921857112126613 8.406073528046024 5.283136699235964 0 0 0
280 0 7 1.575 22.870880871746465 3.626673342935372 2.045736284348874 0 0 0
281 0 7 1.575 20.348258983539868 6.605139112577641 1.7198459326185906 0 0 0
282 0 7 1.575 21.746587933955002 4.466124369957819 5.620353949340847 0 0 0
285 0 8 -1.05 21.79620760898496 2.6264463970771166 5.3538213596012145 0 0 0
286 0 8 -1.05 21.755600070518316 6.5888524326570685 5.6673587042247675 0 0 0
287 0 8 -1.05 17.496042335560993 4.664113628018029 7.218045680651729 0 0 0
288 0 8 -1.05 17.79298522984351 4.715588944029241 3.4954612501624487 0 0 0
289 0 8 -1.05 23.958977307827958 6.734753561452261 3.6542780706180427 0 0 0
290 0 8 -1.05 19.525240295377824 2.5732420322839205 7.113190006170063 0 0 0
292 0 8 -1.05 17.22561145122301 6.175744459936211 1.171879089666039 0 0 0
293 0 8 -1.05 21.81674772541358 4.182410993354206 3.3135484546007863 0 0 0
294 0 8 -1.05 21.517592598965926 4.508271963440079 7.416772317330464 0 0 0
295 0 8 -1.05 23.754202946075324 0.5457016972938513 5.2181838721107665 0 0 0
296 0 8 -1.05 19.578873562791575 0.4816696238929089 5.276696777919118 0 0 0
297 0 8 -1.05 19.664333175862467 6.593017090729838 7.457239941399494 0 0 0
298 0 8 -1.05 23.80336871220607 2.580338010363397 3.385808295582157 0 0 0
299 0 8 -1.05 17.527847452234216 0.8483040313296683 3.324623233477228 0 0 0
300 0 8 -1.05 17.19479374536959 0.45634340414661456 6.8553469192129715 0 0 0
301 0 8 -1.05 19.9355138684838 4.565156113963116 5.3282540462312 0 0 0
302 0 8 -1.05 23.551370175442955 4.594002703890265 5.520199357232659 0 0 0
304 0 8 -1.05 21.8664651502189 2.3387595846809344 1.547948568973012 0 0 0
305 0 8 -1.05 23.788529423851998 2.492197376887348 7.383395938595754 0 0 0
306 0 8 -1.05 19.970401358674017 6.514864618239087 3.4909259612772385 0 0 0
307 0 8 -1.05 21.69802188280056 0.7369236041316565 3.537232246149176 0 0 0
308 0 8 -1.05 21.62510413719863 0.661579999783702 7.339004093998628 0 0 0
309 0 8 -1.05 17.42119578459357 2.797437176124589 5.308036261237485 0 0 0
310 0 8 -1.05 17.945060364818715 6.610860214231341 5.257951137227478 0 0 0
311 0 8 -1.05 19.489295448953932 5.069309165007495 1.5104452705902358 0 0 0
313 0 8 -1.05 19.661689181860226 2.658484442893788 3.4550598610486527 0 0 0
314 0 8 -1.05 23.507454978518414 6.477257714114273 7.628524104104577 0 0 0
371 0 8 -1.05 23.891407154814743 4.888235334738521 1.4045393677003715 0 0 0
372 0 8 -1.05 21.994835870463653 6.769089112746845 1.3456231900893887 0 0 0
373 0 8 -1.05 17.897506642453756 2.9074862036210583 1.262683319472604 0 0 0
374 0 8 -1.05 19.763392465163946 0.5282477558223763 1.552522783578396 0 0 0
646 0 7 1.575 18.935787988782668 9.378442747947156 2.39944057924044 0 0 0
648 0 7 1.575 22.752665116090007 9.502994433831365 6.7065099934285595 0 0 0
651 0 7 1.575 24.787013534846498 11.557300940862099 4.640048535586841 0 0 0
653 0 7 1.575 20.380252560213265 11.744965730753782 8.243501748442872 0 0 0
654 0 7 1.575 21.879912353503702 8.620421684077785 1.6453229589073062 0 0 0
655 0 6 1.05 19.38669868773311 10.553642475642778 5.30500566204984 0 0 0
662 0 7 1.575 21.634416488760344 10.553265148878546 3.5100716576416624 0 0 0
664 0 6 1.05 19.426808920983664 8.56083158607103 7.304979552378968 0 0 0
665 0 7 1.575 23.856857716098403 8.61033349195429 3.6538854880452063 0 0 0
667 0 7 1.575 23.69148455475457 11.021535181658118 1.7991189755437569 0 0 0
671 0 8 -1.05 23.75101799393486 8.468636015648775 1.7841916843408214 0 0 0
672 0 8 -1.05 21.858659230307087 10.469335384781825 5.550513509084906 0 0 0
677 0 8 -1.05 19.609598707646626 10.721005617489213 7.0857090716803075 0 0 0
682 0 8 -1.05 23.782829264875247 8.529285678571426 5.625633327282252 0 0 0
683 0 8 -1.05 19.701345546572945 8.576187240297134 5.411864676323843 0 0 0
685 0 8 -1.05 23.884801696658087 10.45306536226758 3.5689970408139238 0 0 0
686 0 8 -1.05 17.591272775157833 8.437914349903828 3.2253389879797796 0 0 0
687 0 8 -1.05 17.43917713472452 8.768033802874807 6.964472550054325 0 0 0
691 0 8 -1.05 22.05544675216236 10.418839432558169 1.7015521783842018 0 0 0
692 0 8 -1.05 23.54662092641544 10.579102837069447 7.772419435543232 0 0 0
694 0 8 -1.05 21.82499257583464 8.62053999594296 3.533390625215374 0 0 0
695 0 8 -1.05 21.594261381627362 8.524434319779544 7.744126245866476 0 0 0
696 0 8 -1.05 17.564861875073266 10.681289267411 5.106062575322317 0 0 0
700 0 8 -1.05 19.86347816009676 10.385214823832005 3.4830930414593158 0 0 0
760 0 8 -1.05 18.137132483564532 10.567289906987687 1.3284422905391726 0 0 0
761 0 8 -1.05 20.041341517440657 8.343931069522286 1.6204617284325489 0 0 0
661 0 7 1.575 18.247429948217295 12.226544083526184 1.5419174102192792 0 0 0
680 0 8 -1.05 21.955682865281183 12.353552714987275 3.796043375913288 0 0 0
669 0 7 1.575 22.053102238171235 12.150452706593798 5.617912263270648 0 0 0
689 0 8 -1.05 23.773359366594395 12.4305592721123 5.648581874541783 0 0 0
284 0 8 -1.05 23.545058971099508 0.21491993920744798 1.7469277863681405 0 0 0
386 6 10 -0.76 16.832978344704586 5.108294743186474 18.22821201624536 0 0 0
675 0 8 -1.05 17.37961866164012 12.681547772469974 2.983629386378644 0 0 0
97 0 8 -1.05 0.5027516290524368 0.18018959037522822 10.92820861250236 0 0 0
82 0 8 -1.05 6.550537070574984 0.1689071314764224 8.697674487139427 0 0 0
25 0 8 -1.05 2.7021796099541966 0.32746697583025525 9.045246682494382 0 0 0
81 0 8 -1.05 2.918585878873269 0.4672746505965601 16.46942112951634 0 0 0
33 0 8 -1.05 0.39903194754609284 2.4432485061806632 9.159694878377723 0 0 0
45 0 8 -1.05 4.680449950049644 6.47917319517333 8.8953979468074 0 0 0
54 0 8 -1.05 6.66657209845065 4.374783121623063 8.71822408790099 0 0 0
57 0 7 1.575 1.5686406972421851 1.3317410262163738 10.006796451385892 0 0 0
60 0 7 1.575 3.8013607986928104 7.625147334071796 11.813525481069334 0 0 0
62 0 7 1.575 8.13158978311895 3.2227477168277394 11.385166965546611 0 0 0
63 0 7 1.575 5.874155769043531 5.471000103402421 9.748448709600655 0 0 0
69 0 6 1.05 2.275428072710398 4.0877939535582195 11.119733162452935 0 0 0
70 0 7 1.575 0.7983140477735752 6.8102070158012245 11.20327762445634 0 0 0
73 0 7 1.575 5.11259553357499 2.762262805815922 10.81492421800269 0 0 0
76 0 6 1.05 7.054597436911174 8.707999426395348 10.559131630795335 0 0 0
78 0 6 1.05 6.519381643748682 2.33273456502696 8.78411423855529 0 0 0
79 0 6 1.05 2.774907107143435 6.184379655549825 9.209801793437636 0 0 0
86 0 8 -1.05 0.4072832056966595 4.045901828135315 11.191541661859423 0 0 0
87 0 8 -1.05 6.972447260768066 6.436845004536402 10.729674753088188 0 0 0
90 0 8 -1.05 0.32902660597678146 6.331385764669752 9.605398432114074 0 0 0
91 0 8 -1.05 5.011016914136889 4.4851981480651135 10.992860552926025 0 0 0
96 0 8 -1.05 6.853041015268717 2.2836209793225994 10.617885188739503 0 0 0
102 0 8 -1.05 4.701336290075604 2.482284207966689 9.131007548865409 0 0 0
104 0 8 -1.05 2.566704893693222 6.555660207311652 11.049258229469045 0 0 0
109 0 8 -1.05 2.640576234430093 4.3643694365061245 9.28846858607102 0 0 0
111 0 8 -1.05 2.62281631722857 2.228944099541981 11.060256038328053 0 0 0
108 0 8 -1.05 0.6458223810026754 6.184771539288655 12.799795030899912 0 0 0
83 0 8 -1.05 4.807636735697335 2.115637927211274 12.445406440810414 0 0 0
99 0 8 -1.05 2.8445386118397677 4.431025394088957 12.769270797414396 0 0 0
80 0 7 1.575 4.656533961597962 4.905191512208082 12.684483531867603 0 0 0
66 0 7 1.575 3.133411482722397 1.87327471756252 12.655490004230685 0 0 0
412 0 8 -1.05 2.6826819773672828 8.57308616866119 9.125892956491123 0 0 0
420 0 8 -1.05 0.6013306533307128 10.45902853809636 9.147466487703076 0 0 0
444 0 7 1.575 1.6748366489349737 9.496966586661003 10.123791352913607 0 0 0
449 0 7 1.575 8.171308701862134 12.109629700762687 11.2619376250562 0 0 0
452 0 7 1.575 4.61068390502449 8.598170372609127 8.966899965110843 0 0 0
460 0 7 1.575 5.173890565559867 11.249363466607203 10.70799073243243 0 0 0
465 0 6 1.05 6.644918975774932 11.107460563777947 8.570879777528557 0 0 0
469 0 8 -1.05 6.615301586920641 8.56045363758616 8.834742431621157 0 0 0
483 0 8 -1.05 6.9285499687932015 11.036002562124054 10.485519563505445 0 0 0
484 0 8 -1.05 0.6579580911263341 8.544971819189824 11.216910590096251 0 0 0
489 0 8 -1.05 4.608032702353602 10.770514844283282 8.974118370480651 0 0 0
492 0 8 -1.05 4.740185593882158 8.53510389727391 10.729591626829102 0 0 0
498 0 8 -1.05 2.550414517809847 10.649956160105399 11.199490849144572 0 0 0
480 0 8 -1.05 7.12190550677531 8.866814757191344 12.418371900928543 0 0 0
470 0 8 -1.05 4.9699567801242255 10.796613405907951 12.393887119683523 0 0 0
453 0 7 1.575 3.3420206475737353 10.397619243499678 12.727493262004538 0 0 0
59 0 7 1.575 6.0326488373959695 1.1837541927050168 13.330791859972578 0 0 0
61 0 7 1.575 1.7149384503057383 5.269877736153674 13.858164120536944 0 0 0
64 0 7 1.575 5.309059116508855 4.024450142677893 15.836328148453491 0 0 0
68 0 7 1.575 7.32828856782873 4.823072407180713 14.185433778498194 0 0 0
71 0 7 1.575 1.3385652556074428 2.3919966730763256 14.690044012243934 0 0 0
74 0 13 1.575 5.3687320535187455 7.383093354242385 14.466686329715035 0 0 0
75 0 7 1.575 2.0475014223068246 8.047939292366207 14.672047085039742 0 0 0
84 0 8 -1.05 4.691575340516352 6.657988204739213 12.882350809548674 0 0 0
85 0 8 -1.05 1.1089851645614097 4.100958445553378 14.960826410374557 0 0 0
88 0 8 -1.05 3.0005658040867558 2.0696017689085444 14.399626374229058 0 0 0
92 0 8 -1.05 5.352984537467934 4.422144964342893 14.19705042935758 0 0 0
100 0 8 -1.05 7.355886143486896 4.248232047506022 12.548909450982281 0 0 0
95 0 8 -1.05 2.5651667289489146 6.429019609593632 14.791928655891224 0 0 0
123 0 7 1.575 7.1192047296952055 1.8370879779904958 16.098223686160853 0 0 0
122 0 13 1.575 3.3144026719167448 6.1358210781591636 16.36123774649321 0 0 0
101 1 11 -1.05 5.008808853875187 6.942735874555273 16.132829575918073 0 0 0
103 0 8 -1.05 7.223790307293303 1.9543271849575414 14.285215382166093 0 0 0
107 0 8 -1.05 0.46411226881376444 2.0418632764290314 13.163888388735895 0 0 0
110 0 8 -1.05 7.1301383218960535 4.257541036393796 15.905493262499016 0 0 0
112 0 8 -1.05 6.983881349888092 6.582957303664667 14.23398875635113 0 0 0
118 0 8 -1.05 5.403627349275949 2.2699651288626352 16.177667707491224 0 0 0
67 0 6 1.05 7.3407219168284445 7.006996073185302 12.491049082820302 0 0 0
446 0 7 1.575 6.3027725371504175 10.072761109486171 13.356902077378924 0 0 0
458 0 7 1.575 1.2688616202148146 11.344764440191945 14.4449549411161 0 0 0
468 0 8 -1.05 2.918899770148447 8.839464718243836 15.875611114216271 0 0 0
475 0 8 -1.05 2.932565848922135 10.902629574070561 14.322332367071828 0 0 0
510 0 7 1.575 7.406068038855842 11.070106494003525 16.05047565433569 0 0 0
490 0 8 -1.05 7.404104943926013 11.024652916941104 14.232553859721547 0 0 0
493 0 8 -1.05 5.263170073755414 9.099182861946833 14.412578151438424 0 0 0
494 0 8 -1.05 0.32808508180952045 10.88854582005202 13.03695511475622 0 0 0
505 0 8 -1.05 4.985665615799495 11.34785461503613 16.063993470471615 0 0 0
481 0 8 -1.05 2.8656586759250278 8.644199225623764 13.030903394385636 0 0 0
121 0 13 1.575 4.019587472641984 1.329951959231427 15.560160902448878 0 0 0
508 0 13 1.575 3.9636058516749992 10.102976430748912 15.528625632233252 0 0 0
485 0 8 -1.05 0.38205168549834223 8.404561476515125 14.402525671508702 0 0 0
89 0 8 -1.05 0.33599959629417414 1.6385467557211342 15.796977136969536 0 0 0
476 0 8 -1.05 0.3890730733045676 10.795266461180569 15.796093864134649 0 0 0
456 0 6 1.05 2.024364291755024 12.409174074049739 10.811870743996737 0 0 0
65 0 7 1.575 4.576618309770405 0.24903458255082542 8.90147233883454 0 0 0
106 0 8 -1.05 5.081569127359391 0.3197965175360059 14.478275754615963 0 0 0
94 0 8 -1.05 2.778400512415366 0.1716621651156264 12.662686963223171 0 0 0
72 0 7 1.575 0.19933482608858097 4.35553647642901 9.43374298905556 0 0 0
117 0 8 -1.05 3.7499636013176625 4.513880463173073 16.262310251907635 0 0 0
507 0 8 -1.05 7.830881626004764 9.465904860500679 16.471602065495176 0 0 0
335 0 6 1.05 0.8819011374876129 0.24613961091803505 12.830147755295062 1 0 0
211 0 8 -1.05 14.903672546932569 0.12358504450738254 8.551542456934664 0 0 0
93 0 8 -1.05 7.022705010578989 0.0361213640554331 12.374146446598116 0 0 0
105 0 8 -1.05 4.839998697956451 0.06230644473996052 10.660752542884786 0 0 0
1108 0 6 1.05 23.899532046202996 0.04844115037569081 11.034202958488454 0 1 0
541 0 8 -1.05 10.689220943495899 8.799080223520622 8.302411655680748 0 0 0
549 0 8 -1.05 8.768017019478453 10.928383876722515 8.295635998421368 0 0 0
162 0 8 -1.05 8.759437015236154 2.2492012620722077 8.443091996513884 0 0 0
208 0 6 1.05 10.372047040840192 6.996362534842672 8.405296063783695 0 0 0
234 0 8 -1.05 12.731871047441569 0.010043906847818675 10.108634043232197 0 0 0
222 0 8 -1.05 14.623696476223218 0.09210541391297906 12.064374277984953 0 0 0
323 0 7 1.575 21.99219139849099 0.06282372640105167 8.96764767926001 0 0 0
238 0 8 -1.05 10.7456016636124 4.161804154290143 8.513021548726666 0 0 0
581 0 7 1.575 13.272423890251769 8.387632884392904 8.302418503411403 0 0 0
235 0 8 -1.05 12.637118812377679 0.004748775230311787 14.16512832371404 0 0 0
688 0 8 -1.05 19.690912578488692 12.701056721654052 4.998491886502622 0 0 0
207 0 6 1.05 14.766225212646546 2.6118755644543694 8.67676005852318 0 0 0
183 0 8 -1.05 15.123850898641352 4.468481332199927 8.533410916329098 0 0 0
594 0 6 1.05 14.919596438101378 11.131208660463587 8.566259210211271 0 0 0
979 0 6 1.05 15.233081300198334 0.4454283925323923 10.288052116106854 0 1 0
464 0 6 1.05 9.011052162318688 9.206035283371413 12.272757194258364 0 0 0
218 0 8 -1.05 8.824152125761527 2.3482398296796334 16.052876931473612 0 0 0
605 0 8 -1.05 9.152257977330802 11.69217695733893 15.96398889417797 0 0 0
201 0 7 1.575 9.028400637679704 4.112503107905948 8.456614499968648 0 0 0
186 0 7 1.575 9.63542601743694 1.0425493984973346 9.330110525958327 0 0 0
189 0 7 1.575 11.812785132801405 7.730783314065127 11.038656361506042 0 0 0
191 0 7 1.575 15.786112199920401 3.329961974108897 11.45710897015179 0 0 0
192 0 7 1.575 14.125425772870582 5.5875840878024485 9.37771620431897 0 0 0