LAMMPS data file via write_data, version 17 Feb 2022, timestep = 267

4311 atoms
10 atom types
36 bonds
6 bond types
54 angles
6 angle types
0 dihedrals
2 dihedral types
9 impropers
2 improper types

0 25.44 xlo xhi
0 25.44 ylo yhi
-64.778423 32.908 zlo zhi

Masses

1 12.011
2 1.008
3 15.9994
4 15.9994
5 1.008
6 55.845
7 55.845
8 15.9994
9 15.9994
10 1.008

Pair Coeffs # lj/cut/coul/long

1 0.0988 3.31521
2 0.0161 2.4473
3 0.1463 3.04812
4 0.093 3.24287
5 0.0047 0.537925
6 9.0298e-07 4.9062
7 9.0298e-07 4.9062
8 0.1554 3.16554
9 0.1554 3.16554
10 0 0

Bond Coeffs # harmonic

1 361.8 1.105
2 652.57 1.218
3 383.13 1.351
4 563.51 0.973
5 554.135 1
6 0 2.08

Angle Coeffs # harmonic

1 51.617 106.55
2 65.93 123.65
3 65.262 109.49
4 115.745 122.1
5 118.817 130.25
6 30 109.47

Dihedral Coeffs # fourier

1 1 2.3 2 180
2 2 2.3 2 180 1.9 1 0

Improper Coeffs # cvff

1 10.5 -1 2
2 10.5 -1 2

Atoms # full

71 0 7 1.575 3.377381010639978 4.50712236354823 -52.0235115170756 0 0 0
78 0 6 1.05 7.244816483836344 5.714430534520693 -53.891751448868604 0 0 0
3 0 6 1.05 0.10541023254893676 3.3715939501295162 -53.60192363217633 0 0 0
74 0 6 1.05 4.6325739145817835 7.496826943048305 -53.13259544957876 0 0 0
7 0 6 1.05 2.29820146869353 1.2090546541559557 -53.48568026919076 0 0 0
6 0 8 -1.05 2.064983583993861 3.1908823843588143 -52.60568626337381 0 0 0
75 0 8 -1.05 4.804854196413494 5.779852918793655 -51.90716488142034 0 0 0
70 0 8 -1.05 2.6171881810102273 7.456848676834839 -52.85438897852161 0 0 0
4 0 8 -1.05 0.21353511689967838 1.2900351767194913 -52.68711199612689 0 0 0
73 0 8 -1.05 4.2323978170325685 7.797677809919905 -50.20359716258065 0 0 0
19 0 8 -1.05 6.936174038555933 3.777655533674675 -53.30531498513857 0 0 0
79 0 8 -1.05 6.81278088066126 4.908445820842124 -50.14678412395906 0 0 0
77 0 8 -1.05 6.652724779878097 7.443089378185987 -53.17850349692388 0 0 0
11 0 6 1.05 4.529614422046058 1.234745852264517 -51.37301710406844 0 0 0
62 0 7 1.575 0.16178766016084853 5.499842037658009 -51.26340685910284 0 0 0
18 0 7 1.575 6.573136434493278 3.4117180550267507 -51.462727803704595 0 0 0
69 0 7 1.575 2.263711919734618 7.569845615673347 -50.9872321167982 0 0 0
15 0 8 -1.05 6.620021429155697 1.4310682788493303 -51.22528987588296 0 0 0
65 0 8 -1.05 0.19182426026883143 7.516410060939393 -51.10978621186442 0 0 0
14 0 8 -1.05 4.583450252468532 3.265334483947109 -50.96694876733163 0 0 0
66 0 8 -1.05 2.0746702784975914 5.455495985956428 -50.84836768934784 0 0 0
8 0 8 -1.05 2.3883346899913143 0.9958775794762925 -50.72246212094513 0 0 0
10 0 8 -1.05 4.288229714330387 1.103251862997826 -53.33203792229907 0 0 0
61 0 8 -1.05 25.425179831173846 5.3125985490617005 -53.138862302547416 -1 0 0
2 0 8 -1.05 25.048320595413802 3.542132134472587 -51.062971563408354 -1 0 0
20 0 7 1.575 7.731849578237799 0.21893439158578368 -52.41154662086171 0 0 0
81 0 8 -1.05 9.027855004620433 5.328675383275322 -53.12671626181983 0 0 0
22 0 8 -1.05 8.654138319401813 3.352987841098704 -51.1942205287503 0 0 0
91 0 7 1.575 11.822414753609184 4.571687489953563 -52.2314082522765 0 0 0
23 0 7 1.575 8.896626697399194 3.3980271863440246 -53.211268173681695 0 0 0
27 0 7 1.575 10.952985491370114 1.317432833603187 -53.16333360073787 0 0 0
26 0 8 -1.05 10.866195198645723 3.2427398071561133 -53.205264766006295 0 0 0
90 0 8 -1.05 11.031493974042814 7.820765669766455 -53.243716541231805 0 0 0
24 0 8 -1.05 8.953414127190028 1.4323026662531502 -53.26506097176423 0 0 0
82 0 6 1.05 8.76325357784002 5.528411463546918 -51.147964723066984 0 0 0
89 0 6 1.05 10.758670371008202 7.585345400807843 -51.261600765026444 0 0 0
85 0 8 -1.05 8.675935615677895 7.61091577980416 -50.904329670875406 0 0 0
86 0 8 -1.05 10.820944628076306 5.530994529960236 -50.84486717330456 0 0 0
28 0 8 -1.05 10.893682239274316 1.2513677103763219 -51.12744630733146 0 0 0
98 0 7 1.575 15.059974244327877 5.454590852933904 -53.1617853158914 0 0 0
94 0 7 1.575 12.987168509827317 7.644654787444495 -53.160083795673415 0 0 0
95 0 8 -1.05 13.108102582647655 5.637456943281093 -53.149816502442114 0 0 0
93 0 8 -1.05 12.884090811701629 7.668292587664231 -51.13287329888615 0 0 0
39 0 8 -1.05 15.182954939221725 3.384305952664982 -53.10928923270735 0 0 0
99 0 8 -1.05 15.159097676600998 5.581317002052425 -51.096944659406404 0 0 0
97 0 8 -1.05 14.970118991040081 7.474887110521387 -53.22785297267862 0 0 0
31 0 6 1.05 12.904539644074788 1.3586122389384214 -51.07375498338605 0 0 0
38 0 6 1.05 14.974256933481662 3.5107476438091947 -51.07649955697173 0 0 0
35 0 8 -1.05 14.951853091239673 1.4172230753461406 -51.01646947167195 0 0 0
34 0 8 -1.05 12.88835279924585 3.476526461601096 -50.92168233813942 0 0 0
30 0 8 -1.05 13.074516715232313 1.2074498882258868 -53.128266617298955 0 0 0
40 0 7 1.575 15.128779191874733 1.3642317638826558 -53.01619834433215 0 0 0
60 0 7 1.575 24.578100245282727 25.27255528500794 -51.96673917115741 0 -1 0
50 0 8 -1.05 21.439466897107465 0.8282300256802162 -52.72258706495374 0 0 0
48 0 8 -1.05 19.303010478902248 0.8068141539327123 -50.78581281446401 0 0 0
106 0 8 -1.05 19.309222461178226 5.683898850462817 -51.0698051076431 0 0 0
54 0 8 -1.05 21.51555144624113 2.9236083468450826 -50.82331364073109 0 0 0
105 0 8 -1.05 17.383481789073056 7.643242380053404 -51.20255787833013 0 0 0
55 0 8 -1.05 23.500899865315017 1.107692151623382 -50.89627231078558 0 0 0
109 0 7 1.575 19.398384239607143 7.6260521690477825 -51.45024203193997 0 0 0
58 0 7 1.575 23.277552006879123 2.906019520408512 -51.703240379029836 0 0 0
102 0 7 1.575 17.21363393612277 5.609540870144717 -51.15458976190567 0 0 0
51 0 7 1.575 21.351848779782255 0.9148933777169063 -50.79027018290565 0 0 0
117 0 8 -1.05 23.305623089663342 7.488398015592263 -53.17833915315211 0 0 0
119 0 8 -1.05 24.58319104838904 5.671641601960108 -49.49815723891387 0 0 0
59 0 8 -1.05 23.51386917503888 3.4204769589310846 -53.517874101785914 0 0 0
113 0 8 -1.05 21.25348229678694 7.6934406416434635 -50.641797203748865 0 0 0
44 0 8 -1.05 17.129178002617905 1.3162203948995386 -53.243514967002696 0 0 0
110 0 8 -1.05 19.744359397744063 7.907526752935489 -53.31921408657179 0 0 0
115 0 8 -1.05 22.393806353667657 5.210856556516565 -51.68189798032338 0 0 0
46 0 8 -1.05 19.226368494084046 3.1239973900780607 -52.32194308650326 0 0 0
47 0 6 1.05 19.359327705141943 1.2177004100912026 -53.0274900946024 0 0 0
114 0 6 1.05 21.650386367666627 8.2296442064513 -53.96996674351663 0 0 0
43 0 6 1.05 17.29337172039439 3.3665380232603748 -53.03883482973964 0 0 0
118 0 6 1.05 23.47394093743122 5.492273062130473 -53.4864370635215 0 0 0
111 0 7 1.575 20.57894503550899 4.379209808319308 -51.7711150056005 0 0 0
42 0 8 -1.05 17.01090906071613 3.643965362871896 -50.86965632973269 0 0 0
101 0 8 -1.05 17.01387810181597 5.377065735013741 -53.07706829905443 0 0 0
140 0 7 1.575 7.644892747993833 8.739085663695555 -52.20439340841844 0 0 0
128 0 8 -1.05 2.429159457024425 9.544707754450068 -50.77970365509018 0 0 0
130 0 8 -1.05 4.399522101591214 9.458338466473084 -52.8438126053088 0 0 0
123 0 7 1.575 0.32895111223289086 11.812667509456892 -53.13686800316327 0 0 0
127 0 6 1.05 2.4082334857473953 9.60427973144755 -53.223030995448276 0 0 0
126 0 8 -1.05 2.272517011232384 11.667458411050047 -53.00797258765602 0 0 0
124 0 8 -1.05 0.34988069669561445 9.828215998488597 -53.19325316834619 0 0 0
139 0 8 -1.05 6.886768640258406 12.11104075129558 -53.178496984115306 0 0 0
131 0 7 1.575 4.466745338341956 9.76935405020311 -50.975545147037444 0 0 0
138 0 6 1.05 6.553098629586402 11.788480362406837 -51.211309029357636 0 0 0
135 0 8 -1.05 6.488976680331971 9.717777161457123 -50.931044533251864 0 0 0
134 0 8 -1.05 4.473044048690564 11.793574669339863 -50.891446861533474 0 0 0
122 0 8 -1.05 0.16247604179940958 11.897633654184956 -51.068747474697176 0 0 0
191 0 7 1.575 3.487944661730669 12.910705372583031 -52.27089665555459 0 0 0
198 0 7 1.575 6.611750966533818 14.034233044333774 -53.0741829160305 0 0 0
194 0 6 1.05 4.561617312163597 16.132026082961342 -53.46056025640023 0 0 0
195 0 8 -1.05 4.679047990003849 14.083373402719305 -53.163547026243336 0 0 0
190 0 8 -1.05 2.515095474428745 16.335786645432567 -53.2115517115678 0 0 0
193 0 8 -1.05 4.3305506270396315 16.14670464419877 -50.811851711264616 0 0 0
199 0 8 -1.05 6.587633275890663 13.90286931803449 -51.02494801395158 0 0 0
197 0 8 -1.05 6.6328209945996175 15.960434685945737 -53.234190819736575 0 0 0
182 0 6 1.05 0.33821693526462043 13.978597205933527 -51.19650584811987 0 0 0
189 0 7 1.575 2.4300051649661705 16.045514756033423 -51.33139507111011 0 0 0
185 0 8 -1.05 0.429143952573508 16.104733236301414 -50.887708999285465 0 0 0
186 0 8 -1.05 2.4268071922055516 14.080567247519022 -51.08683303657824 0 0 0
181 0 8 -1.05 0.18711940884141406 13.791307112254042 -53.18429712310074 0 0 0
142 0 8 -1.05 8.684625879278478 11.889529707749567 -51.031951377801136 0 0 0
148 0 8 -1.05 10.915873464317068 9.713564891280274 -51.082713071028 0 0 0
143 0 7 1.575 8.799339172012578 11.889495620462567 -53.062587664647 0 0 0
147 0 7 1.575 10.878197542791957 9.769087467630689 -53.11707705757843 0 0 0
146 0 8 -1.05 10.770346842783074 11.775901196134695 -53.13991165363063 0 0 0
144 0 8 -1.05 8.895231085037677 9.913766567339552 -53.065667364188904 0 0 0
201 0 8 -1.05 8.748869100874227 13.936484755155432 -53.03348708705871 0 0 0
211 0 7 1.575 12.021846538050532 12.865632684830453 -52.20924906345436 0 0 0
210 0 8 -1.05 11.382716591230537 16.32826403033636 -53.24551668723497 0 0 0
202 0 6 1.05 8.584704475392359 13.918642669109039 -50.93467620992307 0 0 0
209 0 7 1.575 9.93366692073809 15.384870457526768 -52.53499587060893 0 0 0
205 0 8 -1.05 8.676594978157574 16.05686696223762 -51.20503126202382 0 0 0
206 0 8 -1.05 10.780669201067019 14.076610892710804 -51.152897217211695 0 0 0
160 0 7 1.575 16.1583341950799 8.725430274661695 -52.40190974334432 0 0 0
150 0 8 -1.05 12.84702339191453 9.629130415523877 -53.15407609527282 0 0 0
159 0 8 -1.05 15.319868938803017 11.961340741436933 -53.10423476101098 0 0 0
151 0 6 1.05 13.014063310771032 9.728130789962664 -51.13903378175413 0 0 0
158 0 7 1.575 15.141886380514222 11.746850887643776 -51.182905933874196 0 0 0
155 0 8 -1.05 15.148282877757051 9.775264552817836 -51.07241036634129 0 0 0
154 0 8 -1.05 13.10778146194496 11.856653673932598 -50.933658830214085 0 0 0
218 0 6 1.05 15.102717104249352 13.96148147275123 -53.144134135672175 0 0 0
214 0 7 1.575 13.29273648892156 16.29524657653322 -52.8854383606539 0 0 0
215 0 8 -1.05 13.196309059589113 14.304389650122076 -52.60030003668853 0 0 0
213 0 8 -1.05 13.320077050379604 16.43686531244526 -50.86737126891596 0 0 0
219 0 8 -1.05 15.357693986386707 13.693756526310004 -50.95425193403397 0 0 0
217 0 8 -1.05 15.241733433124054 16.009664622649876 -53.19977726137544 0 0 0
174 0 8 -1.05 21.473372617096185 11.892626597009027 -50.94941641974845 0 0 0
175 0 8 -1.05 23.568847903586136 9.706941463209967 -50.97302691811869 0 0 0
178 0 6 1.05 23.540155279283205 11.841356959095798 -51.30408130381959 0 0 0
171 0 6 1.05 21.531594224250405 9.838876223769399 -51.29702030183153 0 0 0
179 0 8 -1.05 23.804160808295837 11.996424885001135 -53.268732442106355 0 0 0
164 0 8 -1.05 17.397139469689545 9.898099651304168 -53.28492128975815 0 0 0
166 0 8 -1.05 19.177479755515304 11.832174137511316 -53.21028585233644 0 0 0
167 0 7 1.575 19.357311478920902 9.87811257152214 -53.23235744709793 0 0 0
163 0 7 1.575 17.249088555562263 11.923936881701517 -53.185391043386744 0 0 0
170 0 8 -1.05 21.285589692773158 10.019487873643707 -53.26505779417156 0 0 0
168 0 8 -1.05 19.393152587987267 9.618026281172993 -51.183258710248055 0 0 0
162 0 8 -1.05 17.21071002283601 11.76591970396983 -51.110197639490366 0 0 0
180 0 7 1.575 24.567668535659372 8.676970669425756 -52.34238756840676 0 0 0
226 0 8 -1.05 19.456872292146574 13.97464177241172 -51.080849408509714 0 0 0
225 0 8 -1.05 17.472236886558203 15.960304414283339 -51.056083974709935 0 0 0
229 0 7 1.575 19.498898403235778 15.949944202160895 -51.17449840244527 0 0 0
222 0 6 1.05 17.38313818776193 13.835985644144552 -51.08637233172958 0 0 0
237 0 8 -1.05 23.592487944499297 15.931190996068592 -53.19133450264797 0 0 0
239 0 8 -1.05 23.68442323314854 13.92427937417459 -51.10961501947345 0 0 0
233 0 8 -1.05 21.43681069982339 16.114229069380425 -50.96502368434244 0 0 0
230 0 8 -1.05 19.24856319297748 16.081057662034222 -53.108799198786414 0 0 0
235 0 8 -1.05 21.69539532623043 14.04456997348272 -53.276465838721734 0 0 0
234 0 6 1.05 21.552850071410923 16.069458677427978 -53.42143754854268 0 0 0
238 0 7 1.575 23.660938182454046 13.973881048874041 -53.19698145447398 0 0 0
231 0 7 1.575 20.525753465651277 12.881752903773886 -52.363015879058935 0 0 0
221 0 8 -1.05 17.15951586043087 13.954629221726938 -53.150556416019164 0 0 0
260 0 7 1.575 7.521892907051491 17.364432327120003 -52.32124940681481 0 0 0
248 0 8 -1.05 2.4308395441456025 18.071099281811364 -51.05378357159771 0 0 0
250 0 8 -1.05 4.410689402695052 18.14110835368099 -53.07428665680318 0 0 0
311 0 7 1.575 3.5478625259477155 21.36368491908287 -52.24693478537501 0 0 0
318 0 6 1.05 6.609433795258168 22.445521573545484 -53.370572607437204 0 0 0
243 0 7 1.575 0.3223073790420057 20.316947261209673 -53.103464727735826 0 0 0
314 0 7 1.575 4.496365592178222 24.57572633742334 -53.26574628237613 0 0 0
247 0 7 1.575 2.476984214349042 18.284957192557822 -53.13732830321956 0 0 0
246 0 8 -1.05 2.2753456664267167 20.25809002362121 -53.12759254321445 0 0 0
315 0 8 -1.05 4.540860303530706 22.637191702792503 -53.22602493830155 0 0 0
310 0 8 -1.05 2.483662597382528 24.684464822356734 -53.103982895906626 0 0 0
244 0 8 -1.05 0.4866909784099939 18.356109470038646 -53.090132519885145 0 0 0
313 0 8 -1.05 4.387178465422858 24.626733113425395 -51.10036607198819 0 0 0
259 0 8 -1.05 6.817795693127201 20.36542462126345 -53.09543543436485 0 0 0
319 0 8 -1.05 6.63875118662654 22.355911565756855 -50.99162838396626 0 0 0
317 0 8 -1.05 6.437698926820176 24.54897211390398 -53.22227112692534 0 0 0
251 0 6 1.05 4.5466305528097255 18.212814419634725 -51.076217400093576 0 0 0
302 0 7 1.575 0.4125078745183364 22.30103851576094 -50.88283976460264 0 0 0
258 0 7 1.575 6.581331889787615 20.370867596614776 -51.17909391548064 0 0 0
309 0 7 1.575 2.4080476864428007 24.45048095311165 -51.209009500210556 0 0 0
255 0 8 -1.05 6.649087385494813 18.33020121120387 -50.88717545325557 0 0 0
305 0 8 -1.05 0.4479264486888768 24.351014656313524 -50.86157467758158 0 0 0
254 0 8 -1.05 4.599220741285339 20.344500129057266 -50.97077817850935 0 0 0
306 0 8 -1.05 2.429410815662953 22.472329694480592 -50.95348226558922 0 0 0
301 0 8 -1.05 0.021543697247888866 22.269959372289673 -52.77909409200428 0 0 0
242 0 8 -1.05 0.30314597240792757 20.309436092728628 -50.98299973449335 0 0 0
326 0 8 -1.05 10.797851835770798 22.554735906743296 -50.99852767143252 0 0 0
325 0 8 -1.05 8.683083519115678 24.656511348648472 -51.00408791724161 0 0 0
329 0 6 1.05 10.768060888201143 24.59388234295378 -51.24998249537711 0 0 0
322 0 6 1.05 8.687926691103081 22.566354224917465 -51.356402269066905 0 0 0
264 0 8 -1.05 8.927530134654532 18.343041008728097 -53.12435230993698 0 0 0
330 0 8 -1.05 11.142317055085064 24.847347172096388 -53.227848588604076 0 0 0
266 0 8 -1.05 10.753534001155764 20.349645330259644 -53.20776211652607 0 0 0
267 0 6 1.05 11.226606063014772 18.394462153806487 -53.001510177865626 0 0 0
263 0 7 1.575 8.79791177794878 20.31936086014608 -53.21546409134794 0 0 0
321 0 8 -1.05 8.638289547503707 22.27481977853221 -53.317749439943455 0 0 0
262 0 8 -1.05 8.601600475680764 20.474164939237568 -51.100697460440024 0 0 0
268 0 8 -1.05 10.893132577255535 18.22125105994089 -50.921054192474486 0 0 0
331 0 7 1.575 11.847158534992884 21.653950355452125 -52.411512825843396 0 0 0
280 0 7 1.575 17.232304436330423 15.94538396903847 -53.10774715107659 0 0 0
274 0 8 -1.05 12.996282181518339 20.73629067409624 -51.102520983606276 0 0 0
275 0 8 -1.05 15.856805241701307 18.912948335035264 -51.25901597180378 0 0 0
278 0 7 1.575 14.925787815785355 20.62325829414475 -51.32451424126892 0 0 0
271 0 6 1.05 15.338918907654744 18.561551360801978 -53.30789238780697 0 0 0
337 0 8 -1.05 15.01644036893344 24.798159307281505 -53.34905340262888 0 0 0
339 0 8 -1.05 15.144405461113593 22.56754898497309 -51.29010068040015 0 0 0
279 0 8 -1.05 15.458069150750955 20.710615198564515 -53.21442287799379 0 0 0
333 0 8 -1.05 12.93929880595779 24.690476154443022 -51.08791028210475 0 0 0
335 0 8 -1.05 13.213196777549687 22.742339142229973 -53.25425036148624 0 0 0
334 0 7 1.575 13.050812519678976 24.66143143030932 -53.10163824583304 0 0 0
270 0 8 -1.05 13.391060458949404 18.210485744260264 -53.118039753683675 0 0 0
338 0 7 1.575 15.184183975144856 22.7380680656326 -53.272586402205455 0 0 0
346 0 8 -1.05 19.47811813879781 22.23815376449159 -50.944125132148365 0 0 0
294 0 8 -1.05 21.55992181741382 20.097933786216878 -51.01792719900512 0 0 0
345 0 8 -1.05 17.475127572220973 24.242967884872048 -51.39305803952403 0 0 0
295 0 8 -1.05 23.564318120232823 18.079019691427362 -51.02964722755613 0 0 0
349 0 7 1.575 19.387124192940163 24.11327001393156 -51.437309714111365 0 0 0
298 0 6 1.05 23.640078917332293 20.093955501040913 -51.32270098659181 0 0 0
342 0 6 1.05 17.287070740714544 24.668744184309872 -53.41023427338142 0 0 0
291 0 7 1.575 21.52884588075097 18.085220868618432 -51.21306479933714 0 0 0
357 0 8 -1.05 23.298991952683597 23.842161241261405 -51.90281172119547 0 0 0
359 0 8 -1.05 23.66355741341482 21.6540204324766 -49.92004914533123 0 0 0
299 0 8 -1.05 23.83086678964988 20.301275151823948 -53.26213799412859 0 0 0
353 0 8 -1.05 21.079044627958623 24.420615888560565 -50.46890414681812 0 0 0
284 0 8 -1.05 17.25857968619821 17.880635966330665 -53.47411185956872 0 0 0
350 0 8 -1.05 19.39190342236388 24.643758553005576 -53.28536373735012 0 0 0
355 0 8 -1.05 21.367368279503452 22.32094020937558 -53.16358108830981 0 0 0
286 0 8 -1.05 18.68938556425885 20.003367978183096 -52.50935632407999 0 0 0
287 0 6 1.05 19.262121839204852 18.127673366718593 -53.43202347764781 0 0 0
354 0 6 1.05 21.39391187134451 24.336238143039747 -53.346823778929874 0 0 0
283 0 6 1.05 17.38686137098663 20.91782738898247 -53.76201870159746 0 0 0
358 0 6 1.05 23.418261376605045 22.237259560565317 -53.244543489724784 0 0 0
351 0 7 1.575 20.32352566714737 21.02494508698807 -52.20491140745011 0 0 0
290 0 8 -1.05 21.212448652227856 18.06331429957724 -53.11406109551881 0 0 0
288 0 8 -1.05 19.49969631493485 17.923844673181847 -50.9605820111464 0 0 0
282 0 8 -1.05 14.989475443078515 20.661714735251593 -49.286401071729586 0 0 0
341 0 8 -1.05 16.920220168629793 22.81238949971288 -54.09674634235346 0 0 0
300 0 7 1.575 24.77473901967938 17.07922889566106 -52.27318616879286 0 0 0
5 0 7 1.575 1.040555541918812 2.2723975002291805 -51.195506050086266 0 0 0
416 0 7 1.575 7.51186854302639 4.478685130737867 -48.09856619659967 0 0 0
76 0 7 1.575 5.580895346592279 6.40825521396464 -50.16606669592664 0 0 0
368 0 6 1.05 2.2716492317194574 3.4630607981574513 -46.81387795302386 0 0 0
415 0 6 1.05 6.623398685983971 7.596678711764591 -46.83265070708798 0 0 0
68 0 6 1.05 2.416962423623377 5.399203486555913 -48.876702521064445 0 0 0
63 0 6 1.05 25.416650752880553 7.689874503705586 -49.05958606535236 -1 0 0
12 0 7 1.575 4.474552911941332 3.3939460489948132 -49.051512905941856 0 0 0
17 0 6 1.05 6.709582668700358 1.1719448081644488 -49.2628981907353 0 0 0
361 0 7 1.575 0.2101069281602462 1.322648656079612 -46.78905492468403 0 0 0
408 0 7 1.575 4.505768961517649 5.487840967004856 -46.779977465442066 0 0 0
371 0 8 -1.05 4.280192639443409 3.5222673852976922 -46.654027297634755 0 0 0
411 0 8 -1.05 4.4391786903931125 7.537162524282166 -46.73626721503598 0 0 0
64 0 8 -1.05 0.11009696866056992 7.778512604314575 -46.77566351909208 0 0 0
80 0 8 -1.05 6.708808596938092 7.56698853875557 -48.85924867886696 0 0 0
72 0 8 -1.05 4.455615052665837 5.344506833707843 -48.762320553239604 0 0 0
365 0 8 -1.05 2.2443242397065246 1.3504637966226003 -46.707008531552994 0 0 0
16 0 8 -1.05 6.306466753140082 2.967363283385651 -48.32661190269558 0 0 0
406 0 8 -1.05 2.449974895746093 5.496759646314061 -46.77843482785029 0 0 0
412 0 8 -1.05 6.498143208658163 5.509525300406881 -46.7261060196433 0 0 0
67 0 8 -1.05 1.991729813712781 7.400163893006856 -48.86154919599192 0 0 0
13 0 8 -1.05 4.359499640695619 1.3842852113476178 -48.64329537183633 0 0 0
364 0 8 -1.05 0.2388474040908654 3.3613540488741394 -46.850610632044074 0 0 0
9 0 8 -1.05 2.4856577705437113 3.2801159096145756 -48.85837307032576 0 0 0
373 0 8 -1.05 6.714788470387299 0.9425761036493658 -46.437757988773896 0 0 0
404 0 8 -1.05 0.29251085685185896 9.806221722651498 -44.7168903042205 0 0 0
1 0 8 -1.05 0.3610341817287485 1.1648305846989628 -48.740820808583074 0 0 0
372 0 7 1.575 5.138334432400077 1.855815258988468 -46.93067689887428 0 0 0
405 0 7 1.575 1.3680521005327966 6.722874682008118 -45.81544595269105 0 0 0
369 0 7 1.575 2.423159387590241 1.096580639932456 -48.76210458166541 0 0 0
663 0 7 1.575 3.5739434880731507 4.403970002649396 -43.659036806829334 0 0 0
414 0 6 1.05 6.627647016779998 5.4190347686918585 -44.701112448439844 0 0 0
362 0 6 1.05 0.2901107633791802 3.444652556344535 -44.853800691128704 0 0 0
409 0 7 1.575 4.519130754970392 7.696916664234299 -44.75456333076112 0 0 0
367 0 7 1.575 2.4992880621323397 1.3002590907413747 -44.7494176398356 0 0 0
366 0 8 -1.05 2.3115660381668004 3.2673552409504993 -44.50844529477802 0 0 0
410 0 8 -1.05 4.522476853790321 5.685287324316283 -44.69583959606344 0 0 0
407 0 8 -1.05 2.450020693131141 7.710402188632907 -44.4839706453162 0 0 0
363 0 8 -1.05 0.4394074495743102 1.3592626452369463 -44.68350691125111 0 0 0
374 0 8 -1.05 6.8356013377566125 3.241668170107107 -44.43121646084948 0 0 0
413 0 8 -1.05 6.4919406738965835 7.592821316039477 -44.57262985643021 0 0 0
370 0 8 -1.05 4.595662708183469 1.2171300837561592 -44.53631758048766 0 0 0
403 0 8 -1.05 0.20417065515345773 5.539560600406448 -44.76086016171448 0 0 0
626 0 7 1.575 6.873341178446611 1.1822967451373008 -44.51008237124505 0 0 0
418 0 8 -1.05 8.718134000936773 7.771248325861115 -46.75609456659169 0 0 0
21 0 8 -1.05 8.742708211037744 1.168674945600546 -48.90570619733651 0 0 0
25 0 7 1.575 9.792316110564101 2.3528500943342725 -50.03935373731622 0 0 0
382 0 6 1.05 10.800300784226652 3.397972205259562 -46.83603279071909 0 0 0
88 0 7 1.575 10.877684316891445 5.539306431169644 -48.89268781631057 0 0 0
83 0 7 1.575 8.715906399071189 7.6195536680630624 -48.94570363629272 0 0 0
375 0 6 1.05 8.756061957777481 1.2987379068626923 -46.88603625329392 0 0 0
84 0 8 -1.05 8.936671366315116 5.651166315129085 -48.651895499917465 0 0 0
379 0 8 -1.05 10.847030481500205 1.2822232676646141 -46.649464470570194 0 0 0
420 0 8 -1.05 11.030491329014039 5.482215572627794 -46.6777910950686 0 0 0
87 0 8 -1.05 10.765223682648951 7.543072091262887 -48.7736827594318 0 0 0
378 0 8 -1.05 8.712337199031477 3.437607101088438 -46.74032984000231 0 0 0
29 0 8 -1.05 10.895671469560103 3.474351132680872 -48.8707887873224 0 0 0
419 0 7 1.575 9.7771141985558 6.562965243721152 -45.75134056039677 0 0 0
383 0 7 1.575 11.830775032769864 0.18889323509550526 -47.9208453767228 0 0 0
417 0 8 -1.05 8.782841768059512 5.418778917317478 -44.49427384993553 0 0 0
677 0 7 1.575 11.882681898968727 4.519690615092963 -43.72544427085232 0 0 0
376 0 7 1.575 8.763821886785415 3.4309217265544243 -44.800572985937585 0 0 0
381 0 7 1.575 10.803707960211527 1.18308342181417 -44.63717371868937 0 0 0
380 0 8 -1.05 10.751773122176305 3.287448097563166 -44.63375697816963 0 0 0
421 0 8 -1.05 10.975866046270218 7.690274575833889 -44.59002374764848 0 0 0
377 0 8 -1.05 8.816811397626202 1.434605217606426 -44.67335489710526 0 0 0
430 0 7 1.575 16.178459368845665 4.509890526649557 -48.1255581780268 0 0 0
96 0 7 1.575 13.984508131653175 6.618514083423494 -50.019260454598495 0 0 0
429 0 7 1.575 15.124071823441563 7.720975984828904 -46.92098594393591 0 0 0
32 0 7 1.575 12.896006143907037 3.447007145414913 -48.96331646696849 0 0 0
37 0 7 1.575 15.055962981965385 1.3335126020921249 -49.078527892184454 0 0 0
422 0 6 1.05 13.073618753344164 5.492165316342114 -46.83942425339226 0 0 0
385 0 8 -1.05 12.89436576925299 3.4452235587551163 -46.895707329559094 0 0 0
425 0 8 -1.05 13.11590876817562 7.643177816869693 -46.58811728966382 0 0 0
100 0 8 -1.05 15.065602333376624 7.7325541329216465 -48.8514213050758 0 0 0
92 0 8 -1.05 12.887643371055981 5.483144250153217 -48.86278368369418 0 0 0
36 0 8 -1.05 14.88708008928485 3.3229345701111854 -48.89606403633448 0 0 0
426 0 8 -1.05 15.141657115839338 5.685490824702026 -46.938044631168154 0 0 0
33 0 8 -1.05 13.042481639491195 1.3826691837111496 -48.822447070594684 0 0 0
387 0 8 -1.05 15.194707756366446 1.0878939317113425 -47.02508077553867 0 0 0
386 0 7 1.575 13.819929973695487 2.015962692961587 -46.08223131896018 0 0 0
428 0 6 1.05 15.414579504181775 5.8294735105622895 -45.0362179760432 0 0 0
423 0 7 1.575 13.04410071447255 7.6269921911633665 -44.596821324587516 0 0 0
424 0 8 -1.05 13.384766961575172 5.548080790380821 -44.42323846967818 0 0 0
388 0 8 -1.05 14.862318098850507 2.80691939361392 -44.65664397196701 0 0 0
427 0 8 -1.05 15.045559422212635 7.728273650712962 -44.61777306199201 0 0 0
384 0 8 -1.05 12.833694395269974 1.020572629236375 -44.7167621312097 0 0 0
640 0 7 1.575 16.48479720852889 25.198874906156636 -43.947724209340656 0 -1 0
397 0 7 1.575 20.124257795234808 25.379147552567577 -47.95873662941695 0 -1 0
433 0 7 1.575 19.051084945940225 7.561617819790597 -46.64712914346283 0 0 0
400 0 7 1.575 22.57375776436794 2.488789830422648 -46.211347659399635 0 0 0
401 0 8 -1.05 23.722865854104686 0.999551499949626 -46.578344714667665 0 0 0
49 0 8 -1.05 19.277977483269805 3.4753413268255398 -48.918532026495896 0 0 0
392 0 8 -1.05 17.181917481662605 3.3444172913024643 -46.90470057571831 0 0 0
53 0 8 -1.05 21.398106681528247 1.1199538604607546 -48.772622765454265 0 0 0
107 0 8 -1.05 19.259738696551167 7.660358788114033 -48.63193276155363 0 0 0
440 0 8 -1.05 23.45045945484495 5.571860430385545 -46.76595931208097 0 0 0
434 0 8 -1.05 19.36298684739 5.575115975659945 -46.817857577108896 0 0 0
56 0 8 -1.05 23.261100946408412 3.060856425646121 -48.17316289600362 0 0 0
393 0 8 -1.05 19.19721753723268 1.33667720562676 -46.83155683477267 0 0 0
112 0 8 -1.05 21.450958470389498 5.592062695539034 -48.841183229408855 0 0 0
120 0 8 -1.05 23.241305230547372 7.8877228143560005 -48.83052156739755 0 0 0
104 0 8 -1.05 17.25254270833168 5.733746360533551 -49.10807091260164 0 0 0
439 0 8 -1.05 21.30483286159996 7.547049668445781 -46.81751339924753 0 0 0
399 0 8 -1.05 21.106973467188737 3.621596813385274 -46.75612737087667 0 0 0
436 0 7 1.575 21.4143120015201 5.550172966589222 -46.87710433878948 0 0 0
389 0 6 1.05 17.215644252403035 1.1816886786548289 -47.152395766413285 0 0 0
57 0 6 1.05 23.553550489962312 1.1298987206910882 -48.86612726693025 0 0 0
52 0 6 1.05 21.342081748404784 3.207406738300167 -48.837653131044625 0 0 0
103 0 6 1.05 17.192956263904534 7.783235180576304 -49.150776974567 0 0 0
108 0 6 1.05 19.29533011804542 5.586050474764575 -49.02466969802453 0 0 0
443 0 6 1.05 23.498948827646494 7.703317862670694 -46.8052276764757 0 0 0
396 0 7 1.575 19.14668404783698 3.538252380280551 -46.94987398092679 0 0 0
116 0 7 1.575 22.713346851024212 6.402150106619507 -50.174764908184294 0 0 0
444 0 7 1.575 24.518684691590842 4.456946744208989 -48.005437317115415 0 0 0
45 0 7 1.575 18.349924012674574 2.41302134424819 -50.33394409790625 0 0 0
41 0 8 -1.05 17.081273158720947 1.2776910062425175 -49.14676795392954 0 0 0
432 0 8 -1.05 17.09979627875545 7.842669000572828 -46.70821439601999 0 0 0
654 0 7 1.575 24.756405522795056 0.07559750981113623 -43.79132341617393 0 0 0
398 0 8 -1.05 21.378003564402857 1.546452527112012 -44.936571943930865 0 0 0
441 0 8 -1.05 23.53157792787551 7.516906590583815 -44.636818586474135 0 0 0
402 0 8 -1.05 23.643681800736932 3.511243626509926 -44.760546442592336 0 0 0
391 0 8 -1.05 17.47213893440102 1.4879239656078433 -43.73103444250961 0 0 0
435 0 8 -1.05 19.38831005537051 7.733559320780482 -44.64490260597878 0 0 0
438 0 8 -1.05 21.582699318061703 5.578993621849055 -44.804368716056004 0 0 0
394 0 8 -1.05 19.09339342432744 3.3219857304263742 -44.84868784977723 0 0 0
395 0 7 1.575 19.305703961606152 1.376124230432591 -44.9120845552215 0 0 0
437 0 6 1.05 21.459905148954512 7.6862814609904495 -44.791899032473275 0 0 0
390 0 6 1.05 16.924948692810165 3.0437645728581164 -44.95825198117068 0 0 0
442 0 7 1.575 23.614297303544774 5.534274827460103 -44.814410172845754 0 0 0
691 0 7 1.575 20.26914977237938 4.515483477345492 -43.896331445252166 0 0 0
431 0 8 -1.05 16.594799210442247 4.711347864476085 -43.947175125329174 0 0 0
453 0 7 1.575 3.6250321207604577 8.3614506878275 -48.36964222870558 0 0 0
457 0 8 -1.05 6.776968956448407 9.683171144464156 -46.65664072099704 0 0 0
125 0 7 1.575 1.3225763064785467 10.868196590398496 -50.01072393570408 0 0 0
452 0 7 1.575 2.3897204430745833 11.856172361040608 -46.956788566599926 0 0 0
132 0 7 1.575 4.570155531153574 11.957860420074049 -48.92954778921066 0 0 0
137 0 6 1.05 6.637331768986623 9.7560127882743 -48.907118570900636 0 0 0
445 0 7 1.575 0.2478634219357018 9.75422147609415 -46.856740424905425 0 0 0
455 0 8 -1.05 4.352969225825431 11.902803015070733 -46.70134926383414 0 0 0
449 0 8 -1.05 2.227660043312554 9.91633244074326 -46.68459553002634 0 0 0
136 0 8 -1.05 6.544109206764649 11.876398821185527 -48.73998909133241 0 0 0
133 0 8 -1.05 4.547044372053748 9.994137113808181 -48.79005978077872 0 0 0
448 0 8 -1.05 0.35951400874723655 11.821719101593917 -46.79721913373202 0 0 0
129 0 8 -1.05 2.470055256544618 11.965853512220443 -48.85268974136632 0 0 0
121 0 8 -1.05 0.11441177359403067 9.804864397471844 -48.82840377449798 0 0 0
456 0 7 1.575 5.573571936952867 10.81455006029585 -45.72336761750945 0 0 0
710 0 7 1.575 7.720185776458914 8.681536808457036 -43.5879820061183 0 0 0
454 0 8 -1.05 4.450079697916086 9.70078659094229 -44.5378353614159 0 0 0
446 0 6 1.05 0.2357109972159219 11.869205850997584 -44.80640486569792 0 0 0