LAMMPS (29 Sep 2021 - Update 2)
variable  rand equal round(random(0,1e7,452345))
variable layer index 21

variable temp index 500000 450000 405000 364500 328050 295245 265720 239148 215233 193709 174338 156904 141213 127091 114381 102942 92647 83382 75043 67538 60784 54705 49234 44310 39879 35891 32301 29070 26163 23546 21191 19071 17163 15446 13901 12510 11259 10133 9119 8207 7386 6647 5982 5383 4844 4359 3923 3530 3177 2859 2573 2315 2083 1874 1686 1517 1365 1228 1105 994 894 804 723 650 585 526 473 425 382 343 308 277 249 224 201 180 162 145 130 117 105 94 84 75 67 60 54 48 43 38 34 30 27 24 21 18 16 14 12 10 9 8 7 6 5 4 3 2 1

variable type string tet_full

include settings.lmp
units              real
atom_style         full
timestep	   0.5
boundary	   p p f

pair_style         lj/cut/coul/long 12.0
bond_style         harmonic
angle_style        harmonic
dihedral_style     fourier
improper_style     cvff
kspace_style       pppm 1.0e-6
kspace_modify      slab 3.0

pair_modify        mix arithmetic
special_bonds      amber
neighbor           2.0 bin
neigh_modify       every 1 delay 0 check yes

read_data 001-dbt_3x3_${layer}L_fa_${type}_on_bulk_init.data
read_data 001-dbt_3x3_21L_fa_${type}_on_bulk_init.data
read_data 001-dbt_3x3_21L_fa_tet_full_on_bulk_init.data
Reading data file ...
  orthogonal box = (0.0000000 0.0000000 -41.458422) to (25.440000 25.440000 32.908000)
  2 by 2 by 5 MPI processor grid
  reading atoms ...
  2970 atoms
  reading velocities ...
  2970 velocities
  scanning bonds ...
  3 = max bonds/atom
  scanning angles ...
  3 = max angles/atom
  scanning impropers ...
  1 = max impropers/atom
  reading bonds ...
  72 bonds
  reading angles ...
  108 angles
  reading impropers ...
  18 impropers
Finding 1-2 1-3 1-4 neighbors ...
  special bond factors lj:    0        0        0.5     
  special bond factors coul:  0        0        0.8333333333333334
     3 = max # of 1-2 neighbors
     2 = max # of 1-3 neighbors
     2 = max # of 1-4 neighbors
     3 = max # of special neighbors
  special bonds CPU = 0.001 seconds
  read_data CPU = 0.024 seconds

include ff_formic_acid_fe304.param
#####################-----formic_acid-----######################################

mass  1   12.011   # Sp2 C carbonyl group
mass  2    1.008   # H bonded to non-sp3 carbon with 2 electrwd. group
mass  3   15.9994  # Oxygen with one connected atom
mass  4   15.9994  # Oxygen in hydroxyl group
mass  5    1.008   # Hydroxyl group

pair_coeff  1  1   0.0988  3.31521230994  # c
pair_coeff  2  2   0.0161  2.44729877873  # h5
pair_coeff  3  3   0.1463  3.04812087425  # o
pair_coeff  4  4   0.0930  3.24287133403  # oh
pair_coeff  5  5   0.0047  0.537924646013 # ho

bond_coeff  1  361.80  1.105  # c-h5
bond_coeff  2  652.57  1.218  # c=o
bond_coeff  3  383.13  1.351  # c-oh
bond_coeff  4  563.51  0.973  # o-h

angle_coeff  1   51.617  106.550  # c-oh-ho
angle_coeff  2   65.930  123.650  # h5-c=o
angle_coeff  3   65.262  109.490  # h5-c-oh
angle_coeff  4  115.745  122.100  # o=c-oh

dihedral_coeff  1  1  2.3  2  180.0               # h5-c-oh-ho
dihedral_coeff  2  2  2.3  2  180.0  1.9  1  0.0  # o=c-oh-ho

                              #  h5
                              #  |
improper_coeff  1  10.5 -1 2  #  c
                              # / \
                              # o  oh

#####################-----formate-----###########################################

angle_coeff  5   118.817 130.250  # o-c-o

                              #  h5
                              #  |
improper_coeff  2  10.5 -1 2  #  c
                              # / \
                              # o  o

#####################-----magnetite-----#########################################

mass  6   55.845   # Iron(II)
mass  7   55.845   # Iron(III)
mass  8   15.9994  # Bridging oxygen
mass  9   15.9994  # Hydroxyl oxygen
mass  10   1.008   # Hydroxyl hydrogen

pair_coeff  6  6   9.0298e-07  4.90620  # fe2
pair_coeff  7  7   9.0298e-07  4.90620  # fe3
pair_coeff  8  8   0.1554      3.16554  # ob
pair_coeff  9  9   0.1554      3.16554  # oh
pair_coeff  10 10  0.0         0.0      # ho

bond_coeff  5  554.1349  1.0   # oh-ho
bond_coeff  6    0.0     2.08  # fe-oh (dummy bond)

angle_coeff  6   30.0  109.470  # fe-oh-ho

##################################################################################

dump dmp all custom 10000 swap_${layer}L_${type}.lammpstrj id mol type q x y z
dump dmp all custom 10000 swap_21L_${type}.lammpstrj id mol type q x y z
dump dmp all custom 10000 swap_21L_tet_full.lammpstrj id mol type q x y z
dump_modify dmp sort id

# Formate coated fe ions.
group fe molecule 99
576 atoms in group fe
variable nfe equal count(fe)
variable nsteps equal round((${nfe}*${nfe})/4)
variable nsteps equal round((576*${nfe})/4)
variable nsteps equal round((576*576)/4)

compute coord fe coord/atom cutoff 2.0
dump coord fe custom 1 fe_${layer}L.coord id type c_coord
dump coord fe custom 1 fe_21L.coord id type c_coord
dump_modify coord sort id
run 0
WARNING: No fixes defined, atoms won't move (../verlet.cpp:55)
PPPM initialization ...
  using 12-bit tables for long-range coulomb (../kspace.cpp:340)
  G vector (1/distance) = 0.2958869
  grid = 45 45 200
  stencil order = 5
  estimated absolute RMS force accuracy = 0.00034164501
  estimated relative force accuracy = 1.0288538e-06
  using double precision KISS FFT
  3d grid and FFT values/proc = 144150 77234
Neighbor list info ...
  update every 1 steps, delay 0 steps, check yes
  max neighbors/atom: 2000, page size: 100000
  master list distance cutoff = 14
  ghost atom cutoff = 14
  binsize = 7, bins = 4 4 11
  2 neighbor lists, perpetual/occasional/extra = 1 1 0
  (1) pair lj/cut/coul/long, perpetual
      attributes: half, newton on
      pair build: half/bin/newton
      stencil: half/bin/3d
      bin: standard
  (2) compute coord/atom, occasional
      attributes: full, newton on
      pair build: full/bin
      stencil: full/bin/3d
      bin: standard
Per MPI rank memory allocation (min/avg/max) = 14.15 | 16.93 | 24.55 Mbytes
Step Temp E_pair E_mol TotEng Press 
       0            0   -534782.81    7037.1991   -527745.62   -22485.385 
Loop time of 2.32906e-05 on 20 procs for 0 steps with 2970 atoms

96.2% CPU use with 20 MPI tasks x no OpenMP threads

MPI task timing breakdown:
Section |  min time  |  avg time  |  max time  |%varavg| %total
---------------------------------------------------------------
Pair    | 0          | 0          | 0          |   0.0 |  0.00
Bond    | 0          | 0          | 0          |   0.0 |  0.00
Kspace  | 0          | 0          | 0          |   0.0 |  0.00
Neigh   | 0          | 0          | 0          |   0.0 |  0.00
Comm    | 0          | 0          | 0          |   0.0 |  0.00
Output  | 0          | 0          | 0          |   0.0 |  0.00
Modify  | 0          | 0          | 0          |   0.0 |  0.00
Other   |            | 2.329e-05  |            |       |100.00

Nlocal:        148.500 ave         226 max          16 min
Histogram: 4 2 2 0 0 0 0 0 0 12
Nghost:        4118.00 ave        6336 max        2449 min
Histogram: 8 0 0 0 0 8 0 0 0 4
Neighs:        71280.9 ave      122110 max         584 min
Histogram: 4 0 4 0 0 0 2 2 0 8
FullNghs:      142562.0 ave      238698 max        8448 min
Histogram: 4 4 0 0 0 0 0 0 4 8

Total # of neighbors = 2851236
Ave neighs/atom = 960.01212
Ave special neighs/atom = 0.084848485
Neighbor list builds = 0
Dangerous builds = 0
variable fet atom c_coord==4
group fet variable fet
180 atoms in group fet
group feo subtract fe fet
396 atoms in group feo
undump coord

# Reset molIDs
set mol 1 mol 0
Setting atom values ...
  216 settings made for mol
set mol 2 mol 0
Setting atom values ...
  1314 settings made for mol
set group fet mol 1
Setting atom values ...
  180 settings made for mol
set group feo mol 2
Setting atom values ...
  396 settings made for mol

variable fet3 atom "gmask(fet) && q == 1.575"
group fet3 dynamic fe var fet3 every 100
dynamic group fet3 defined
variable rfet3 equal count(fet3)/count(fet)

variable feo3 atom "gmask(feo) && q == 1.575"
group feo3 dynamic fe var feo3 every 100
dynamic group feo3 defined
variable rfeo3 equal count(feo3)/count(feo)

variable cnum equal 109

# High Tmc swaps to randomize the oxidation states.
fix swp fe atom/swap 1 1 ${rand} 5000000 ke no types 6 7
fix swp fe atom/swap 1 1 855824 5000000 ke no types 6 7
thermo 1000
thermo_style custom step pe f_swp[1] f_swp[2] v_rfet3 v_rfeo3
run 100000
PPPM initialization ...
  using 12-bit tables for long-range coulomb (../kspace.cpp:340)
  G vector (1/distance) = 0.2958869
  grid = 45 45 200
  stencil order = 5
  estimated absolute RMS force accuracy = 0.00034164501
  estimated relative force accuracy = 1.0288538e-06
  using double precision KISS FFT
  3d grid and FFT values/proc = 144150 77234
Per MPI rank memory allocation (min/avg/max) = 12.88 | 15.66 | 23.28 Mbytes
Step PotEng f_swp[1] f_swp[2] v_rfet3 v_rfeo3 
       0   -527745.62            0            0         0.75         0.75 
    1000   -531468.75         1000          990   0.75555556   0.74747475 
    2000   -530121.69         2000         1979   0.73888889   0.75505051 
    3000    -525952.2         3000         2971   0.82777778   0.71464646 
    4000   -528805.79         4000         3961   0.69444444   0.77525253 
    5000   -530860.21         5000         4947   0.73888889   0.75505051 
    6000   -529128.99         6000         5936   0.80555556   0.72474747 
    7000   -529034.39         7000         6924   0.78333333   0.73484848 
    8000   -527622.16         8000         7910   0.75555556   0.74747475 
    9000   -529609.15         9000         8900   0.76666667   0.74242424 
   10000   -532575.83        10000         9894   0.74444444   0.75252525 
   11000   -530449.94        11000        10882   0.73333333   0.75757576 
   12000   -530517.46        12000        11874   0.72777778   0.76010101 
   13000   -529816.56        13000        12860   0.76666667   0.74242424 
   14000   -531950.23        14000        13848   0.73888889   0.75505051 
   15000   -529812.43        15000        14839   0.75555556   0.74747475 
   16000   -528889.74        16000        15826   0.77777778   0.73737374 
   17000   -529382.99        17000        16810   0.79444444   0.72979798 
   18000   -528721.28        18000        17801   0.77777778   0.73737374 
   19000   -530043.13        19000        18796   0.76111111   0.74494949 
   20000    -528401.8        20000        19779   0.71111111   0.76767677 
   21000   -527494.25        21000        20768   0.72777778   0.76010101 
   22000   -527928.58        22000        21750          0.7   0.77272727 
   23000   -525114.94        23000        22740   0.79444444   0.72979798 
   24000   -525973.41        24000        23728   0.75555556   0.74747475 
   25000   -529045.99        25000        24718         0.75         0.75 
   26000   -524591.22        26000        25708   0.72777778   0.76010101 
   27000   -528502.05        27000        26691   0.74444444   0.75252525 
   28000   -528312.66        28000        27678   0.73333333   0.75757576 
   29000   -522683.38        29000        28660   0.76111111   0.74494949 
   30000   -528289.55        30000        29646         0.75         0.75 
   31000   -532356.65        31000        30639   0.72222222   0.76262626 
   32000   -526913.04        32000        31631   0.73888889   0.75505051 
   33000   -528755.36        33000        32623         0.75         0.75 
   34000   -527908.32        34000        33611   0.73888889   0.75505051 
   35000   -528979.22        35000        34593   0.76111111   0.74494949 
   36000   -525434.69        36000        35580         0.75         0.75 
   37000    -528490.7        37000        36570   0.77777778   0.73737374 
   38000   -530863.69        38000        37562   0.75555556   0.74747475 
   39000    -530403.4        39000        38555   0.78333333   0.73484848 
   40000   -531661.11        40000        39545   0.76666667   0.74242424 
   41000   -526972.21        41000        40533   0.71111111   0.76767677 
   42000   -529896.66        42000        41521   0.80555556   0.72474747 
   43000   -524230.78        43000        42510   0.74444444   0.75252525 
   44000   -529017.23        44000        43502   0.69444444   0.77525253 
   45000   -528249.95        45000        44488   0.77777778   0.73737374 
   46000   -527308.76        46000        45475   0.76666667   0.74242424 
   47000   -529152.75        47000        46463   0.71111111   0.76767677 
   48000   -529756.81        48000        47451   0.78888889   0.73232323 
   49000   -531025.41        49000        48447   0.76111111   0.74494949 
   50000   -525611.08        50000        49438   0.73333333   0.75757576 
   51000   -531684.07        51000        50424   0.77777778   0.73737374 
   52000   -525868.85        52000        51413   0.73333333   0.75757576 
   53000   -530373.82        53000        52402   0.72777778   0.76010101 
   54000   -528313.65        54000        53390   0.73888889   0.75505051 
   55000   -527667.98        55000        54380   0.69444444   0.77525253 
   56000   -525561.68        56000        55361   0.78888889   0.73232323 
   57000   -526328.04        57000        56342   0.78888889   0.73232323 
   58000   -531201.37        58000        57330   0.71666667   0.76515152 
   59000   -524379.73        59000        58318   0.75555556   0.74747475 
   60000    -530662.2        60000        59307   0.70555556   0.77020202 
   61000   -529636.45        61000        60299   0.77222222   0.73989899 
   62000   -529202.17        62000        61288   0.76111111   0.74494949 
   63000   -529744.31        63000        62279   0.72777778   0.76010101 
   64000    -527792.2        64000        63266   0.72222222   0.76262626 
   65000   -529043.87        65000        64254   0.74444444   0.75252525 
   66000   -526973.06        66000        65243   0.74444444   0.75252525 
   67000   -525654.54        67000        66235   0.78888889   0.73232323 
   68000    -526578.7        68000        67226   0.77222222   0.73989899 
   69000   -530209.07        69000        68217   0.77222222   0.73989899 
   70000   -527367.14        70000        69204   0.77222222   0.73989899 
   71000    -527037.8        71000        70191   0.73333333   0.75757576 
   72000   -530495.71        72000        71183   0.72777778   0.76010101 
   73000    -525031.9        73000        72172   0.79444444   0.72979798 
   74000   -532472.42        74000        73160         0.75         0.75 
   75000   -523562.35        75000        74145   0.78888889   0.73232323 
   76000   -526605.43        76000        75131   0.70555556   0.77020202 
   77000   -528244.66        77000        76115   0.71666667   0.76515152 
   78000   -521927.95        78000        77098   0.76666667   0.74242424 
   79000   -526289.36        79000        78080   0.79444444   0.72979798 
   80000   -531522.14        80000        79069   0.73888889   0.75505051 
   81000   -531789.61        81000        80058   0.78888889   0.73232323 
   82000   -525659.92        82000        81045   0.73888889   0.75505051 
   83000   -528059.72        83000        82031   0.76666667   0.74242424 
   84000   -527959.15        84000        83013         0.75         0.75 
   85000   -527333.32        85000        84003   0.72222222   0.76262626 
   86000   -526478.03        86000        84992   0.73888889   0.75505051 
   87000   -529492.25        87000        85973   0.79444444   0.72979798 
   88000   -531301.23        88000        86959   0.76111111   0.74494949 
   89000   -529081.33        89000        87944   0.72777778   0.76010101 
   90000   -531924.08        90000        88933   0.80555556   0.72474747 
   91000   -529796.81        91000        89923   0.72777778   0.76010101 
   92000   -527291.94        92000        90912   0.77777778   0.73737374 
   93000   -529211.25        93000        91894   0.77777778   0.73737374 
   94000   -524114.52        94000        92884   0.77777778   0.73737374 
   95000   -527494.35        95000        93877   0.77777778   0.73737374 
   96000   -525527.71        96000        94861         0.75         0.75 
   97000   -523160.16        97000        95845   0.76111111   0.74494949 
   98000   -528122.67        98000        96835   0.75555556   0.74747475 
   99000   -531096.08        99000        97816   0.75555556   0.74747475 
  100000   -529264.44       100000        98806         0.75         0.75 
Loop time of 6284.16 on 20 procs for 100000 steps with 2970 atoms

Performance: 0.687 ns/day, 34.912 hours/ns, 15.913 timesteps/s
99.4% CPU use with 20 MPI tasks x no OpenMP threads

MPI task timing breakdown:
Section |  min time  |  avg time  |  max time  |%varavg| %total
---------------------------------------------------------------
Pair    | 1.8728     | 128.47     | 219.76     | 747.7 |  2.04
Bond    | 0.060021   | 0.21128    | 0.54751    |  35.9 |  0.00
Kspace  | 1090.1     | 1182       | 1309.3     | 247.8 | 18.81
Neigh   | 306.93     | 313.64     | 327.06     |  40.0 |  4.99
Comm    | 40.179     | 59.596     | 69.671     | 136.9 |  0.95
Output  | 0.015218   | 0.019705   | 0.029384   |   3.1 |  0.00
Modify  | 4594       | 4598       | 4604       |   5.6 | 73.17
Other   |            | 2.294      |            |       |  0.04

Nlocal:        148.500 ave         226 max          16 min
Histogram: 4 2 2 0 0 0 0 0 0 12
Nghost:        4118.00 ave        6336 max        2449 min
Histogram: 8 0 0 0 0 8 0 0 0 4
Neighs:        71280.9 ave      122110 max         584 min
Histogram: 4 0 4 0 0 0 2 2 0 8
FullNghs:      142562.0 ave      238698 max        8448 min
Histogram: 4 4 0 0 0 0 0 0 4 8

Total # of neighbors = 2851236
Ave neighs/atom = 960.01212
Ave special neighs/atom = 0.084848485
Neighbor list builds = 200000
Dangerous builds = 0

unfix swp
thermo_style custom step temp pe
write_data 001-dbt_3x3_${layer}L_fa_${type}_rand.data
write_data 001-dbt_3x3_21L_fa_${type}_rand.data
write_data 001-dbt_3x3_21L_fa_tet_full_rand.data
System init for write_data ...
PPPM initialization ...
  using 12-bit tables for long-range coulomb (../kspace.cpp:340)
  G vector (1/distance) = 0.2958869
  grid = 45 45 200
  stencil order = 5
  estimated absolute RMS force accuracy = 0.00034164501
  estimated relative force accuracy = 1.0288538e-06
  using double precision KISS FFT
  3d grid and FFT values/proc = 144150 77234

label minimize_temp

  variable ftemp equal v_temp

  # Minimize O-H bond
  group  immobile_1 type 1 2 3 6 7 8
2934 atoms in group immobile_1
  fix  freeze immobile_1 setforce 0.0 0.0 0.0
  minimize  1.0e-6 1.0e-9 1000 10000
PPPM initialization ...
  using 12-bit tables for long-range coulomb (../kspace.cpp:340)
  G vector (1/distance) = 0.2958869
  grid = 45 45 200
  stencil order = 5
  estimated absolute RMS force accuracy = 0.00034164501
  estimated relative force accuracy = 1.0288538e-06
  using double precision KISS FFT
  3d grid and FFT values/proc = 144150 77234
Per MPI rank memory allocation (min/avg/max) = 14.01 | 16.78 | 24.40 Mbytes
Step Temp PotEng 
  100000            0   -529264.44 
  100023            0   -531735.86 
Loop time of 0.552544 on 20 procs for 23 steps with 2970 atoms

99.3% CPU use with 20 MPI tasks x no OpenMP threads

Minimization stats:
  Stopping criterion = energy tolerance
  Energy initial, next-to-last, final = 
     -529264.440827766    -531735.7204745  -531735.855758877
  Force two-norm initial, final = 2580.5114 13.352394
  Force max component initial, final = 430.90824 3.7037951
  Final line search alpha, max atom move = 0.0074832264 0.027716338
  Iterations, force evaluations = 23 37

MPI task timing breakdown:
Section |  min time  |  avg time  |  max time  |%varavg| %total
---------------------------------------------------------------
Pair    | 0.0010155  | 0.07267    | 0.12395    |  17.7 | 13.15
Bond    | 4.1859e-05 | 0.00013373 | 0.00034594 |   0.0 |  0.02
Kspace  | 0.40948    | 0.46172    | 0.53367    |   7.1 | 83.56
Neigh   | 0.0030471  | 0.0031135  | 0.0032417  |   0.1 |  0.56
Comm    | 0.007033   | 0.010818   | 0.013241   |   2.1 |  1.96
Output  | 0          | 0          | 0          |   0.0 |  0.00
Modify  | 4.6108e-05 | 7.6545e-05 | 9.3216e-05 |   0.0 |  0.01
Other   |            | 0.004015   |            |       |  0.73

Nlocal:        148.500 ave         226 max          16 min
Histogram: 4 2 2 0 0 0 0 0 0 12
Nghost:        4130.00 ave        6386 max        2454 min
Histogram: 8 0 0 0 0 8 0 0 0 4
Neighs:        71275.9 ave      122110 max         584 min
Histogram: 4 0 4 0 0 0 2 2 0 8
FullNghs:      142562.0 ave      238698 max        8448 min
Histogram: 4 4 0 0 0 0 0 0 4 8

Total # of neighbors = 2851236
Ave neighs/atom = 960.01212
Ave special neighs/atom = 0.084848485
Neighbor list builds = 1
Dangerous builds = 0
  unfix  freeze
  group immobile_1 delete

  # Minimize formate
  group  immobile_2 type 6 7 8 9 10
2898 atoms in group immobile_2
  fix  freeze immobile_2 setforce 0.0 0.0 0.0
  minimize  1.0e-6 1.0e-9 1000 10000
PPPM initialization ...
  using 12-bit tables for long-range coulomb (../kspace.cpp:340)
  G vector (1/distance) = 0.2958869
  grid = 45 45 200
  stencil order = 5
  estimated absolute RMS force accuracy = 0.00034164501
  estimated relative force accuracy = 1.0288538e-06
  using double precision KISS FFT
  3d grid and FFT values/proc = 144150 77234
Per MPI rank memory allocation (min/avg/max) = 14.01 | 16.78 | 24.40 Mbytes
Step Temp PotEng 
  100023            0   -531735.86 
  100040            0   -536051.71 
Loop time of 0.459119 on 20 procs for 17 steps with 2970 atoms

99.4% CPU use with 20 MPI tasks x no OpenMP threads

Minimization stats:
  Stopping criterion = energy tolerance
  Energy initial, next-to-last, final = 
     -531735.855758877  -536051.543191823  -536051.711647215
  Force two-norm initial, final = 3856.8459 19.103963
  Force max component initial, final = 429.38623 3.6285449
  Final line search alpha, max atom move = 0.011411929 0.041408698
  Iterations, force evaluations = 17 31

MPI task timing breakdown:
Section |  min time  |  avg time  |  max time  |%varavg| %total
---------------------------------------------------------------
Pair    | 0.0011716  | 0.061397   | 0.10458    |  16.2 | 13.37
Bond    | 3.5817e-05 | 0.00011585 | 0.00029267 |   0.0 |  0.03
Kspace  | 0.34169    | 0.38569    | 0.44623    |   6.5 | 84.01
Neigh   | 0          | 0          | 0          |   0.0 |  0.00
Comm    | 0.005746   | 0.008713   | 0.010661   |   1.9 |  1.90
Output  | 0          | 0          | 0          |   0.0 |  0.00
Modify  | 3.8804e-05 | 6.2942e-05 | 7.6854e-05 |   0.0 |  0.01
Other   |            | 0.003138   |            |       |  0.68

Nlocal:        148.500 ave         226 max          16 min
Histogram: 4 2 2 0 0 0 0 0 0 12
Nghost:        4130.00 ave        6386 max        2454 min
Histogram: 8 0 0 0 0 8 0 0 0 4
Neighs:        71274.3 ave      122110 max         584 min
Histogram: 4 0 4 0 0 0 2 2 0 8
FullNghs:      142562.0 ave      238698 max        8448 min
Histogram: 4 4 0 0 0 0 0 0 4 8

Total # of neighbors = 2851236
Ave neighs/atom = 960.01212
Ave special neighs/atom = 0.084848485
Neighbor list builds = 0
Dangerous builds = 0
  unfix  freeze
  group immobile_2 delete

  # Electrostatic relaxation
  fix  swp fe atom/swap 1 1 ${rand} ${temp} ke no types 6 7
  fix  swp fe atom/swap 1 1 710414 ${temp} ke no types 6 7
  fix  swp fe atom/swap 1 1 710414 500000 ke no types 6 7
  thermo 1000
  thermo_style custom step v_ftemp v_cnum pe f_swp[1] f_swp[2] v_rfet3 v_rfeo3
  run ${nsteps}
  run 82944
PPPM initialization ...
  using 12-bit tables for long-range coulomb (../kspace.cpp:340)
  G vector (1/distance) = 0.2958869
  grid = 45 45 200
  stencil order = 5
  estimated absolute RMS force accuracy = 0.00034164501
  estimated relative force accuracy = 1.0288538e-06
  using double precision KISS FFT
  3d grid and FFT values/proc = 144150 77234
Per MPI rank memory allocation (min/avg/max) = 12.88 | 15.66 | 23.28 Mbytes
Step v_ftemp v_cnum PotEng f_swp[1] f_swp[2] v_rfet3 v_rfeo3 
  100040       500000          109   -536051.71            0            0         0.75         0.75 
  101000       500000          109   -537087.27          960          889   0.74444444   0.75252525 
  102000       500000          109   -536866.41         1960         1794   0.71666667   0.76515152 
  103000       500000          109   -538442.22         2960         2704   0.78888889   0.73232323 
  104000       500000          109   -538647.34         3960         3611   0.73888889   0.75505051 
  105000       500000          109    -537885.4         4960         4525   0.75555556   0.74747475 
  106000       500000          109   -538205.96         5960         5433   0.77777778   0.73737374 
  107000       500000          109    -535835.8         6960         6337   0.77777778   0.73737374 
  108000       500000          109   -535650.65         7960         7246   0.74444444   0.75252525 
  109000       500000          109   -539179.54         8960         8148   0.78333333   0.73484848 
  110000       500000          109    -534676.6         9960         9051   0.77777778   0.73737374 
  111000       500000          109   -539653.15        10960         9977   0.73333333   0.75757576 
  112000       500000          109   -540238.23        11960        10887   0.74444444   0.75252525 
  113000       500000          109   -538257.78        12960        11796   0.75555556   0.74747475 
  114000       500000          109   -539585.25        13960        12725   0.73888889   0.75505051 
  115000       500000          109   -538060.01        14960        13639          0.7   0.77272727 
  116000       500000          109   -535962.21        15960        14532   0.73333333   0.75757576 
  117000       500000          109   -539441.74        16960        15440   0.78333333   0.73484848 
  118000       500000          109   -539404.97        17960        16371          0.8   0.72727273 
  119000       500000          109   -540285.35        18960        17289   0.72777778   0.76010101 
  120000       500000          109   -537741.22        19960        18197         0.75         0.75 
  121000       500000          109   -539739.12        20960        19130   0.77222222   0.73989899 
  122000       500000          109   -536926.36        21960        20054   0.76111111   0.74494949 
  123000       500000          109    -536046.1        22960        20971   0.73888889   0.75505051 
  124000       500000          109   -538818.86        23960        21869   0.73888889   0.75505051 
  125000       500000          109   -538560.07        24960        22784   0.74444444   0.75252525 
  126000       500000          109   -539096.72        25960        23693   0.76111111   0.74494949 
  127000       500000          109   -539403.74        26960        24591   0.74444444   0.75252525 
  128000       500000          109   -537884.48        27960        25510   0.78888889   0.73232323 
  129000       500000          109   -537648.33        28960        26430   0.73888889   0.75505051 
  130000       500000          109    -536493.7        29960        27355   0.76666667   0.74242424 
  131000       500000          109   -539825.75        30960        28256   0.79444444   0.72979798 
  132000       500000          109    -535106.2        31960        29157   0.72222222   0.76262626 
  133000       500000          109   -537751.43        32960        30061   0.72222222   0.76262626 
  134000       500000          109   -538552.02        33960        30979   0.74444444   0.75252525 
  135000       500000          109   -537781.71        34960        31880   0.78888889   0.73232323 
  136000       500000          109   -536202.88        35960        32789   0.76666667   0.74242424 
  137000       500000          109    -540143.1        36960        33698   0.78333333   0.73484848 
  138000       500000          109   -538062.86        37960        34594   0.78333333   0.73484848 
  139000       500000          109   -537833.09        38960        35487   0.71666667   0.76515152 
  140000       500000          109   -538651.23        39960        36392   0.77777778   0.73737374 
  141000       500000          109   -537382.52        40960        37306         0.75         0.75 
  142000       500000          109   -535890.78        41960        38207   0.76666667   0.74242424 
  143000       500000          109   -537691.43        42960        39132   0.77222222   0.73989899 
  144000       500000          109    -534606.2        43960        40027   0.76111111   0.74494949 
  145000       500000          109   -539634.48        44960        40927   0.73888889   0.75505051 
  146000       500000          109   -537023.64        45960        41828          0.7   0.77272727 
  147000       500000          109   -538432.33        46960        42744   0.73333333   0.75757576 
  148000       500000          109   -539502.81        47960        43674   0.73888889   0.75505051 
  149000       500000          109   -536879.32        48960        44590   0.79444444   0.72979798 
  150000       500000          109    -536311.5        49960        45479   0.70555556   0.77020202 
  151000       500000          109   -538345.87        50960        46394   0.76111111   0.74494949 
  152000       500000          109   -537789.51        51960        47313   0.76111111   0.74494949 
  153000       500000          109   -537448.73        52960        48229   0.71666667   0.76515152 
  154000       500000          109   -538121.92        53960        49166   0.75555556   0.74747475 
  155000       500000          109   -539740.72        54960        50058   0.74444444   0.75252525 
  156000       500000          109   -538851.29        55960        50962   0.77777778   0.73737374 
  157000       500000          109   -538781.77        56960        51873   0.77777778   0.73737374 
  158000       500000          109   -536455.89        57960        52772   0.79444444   0.72979798 
  159000       500000          109    -537488.6        58960        53676   0.78888889   0.73232323 
  160000       500000          109   -538740.75        59960        54585   0.76111111   0.74494949 
  161000       500000          109   -539281.64        60960        55497         0.75         0.75 
  162000       500000          109   -540190.27        61960        56402   0.78888889   0.73232323 
  163000       500000          109   -539097.94        62960        57320   0.71111111   0.76767677 
  164000       500000          109    -539370.2        63960        58244   0.74444444   0.75252525 
  165000       500000          109   -537453.71        64960        59174   0.72222222   0.76262626 
  166000       500000          109   -537441.27        65960        60087   0.76666667   0.74242424 
  167000       500000          109   -537462.85        66960        60996   0.74444444   0.75252525 
  168000       500000          109   -535589.39        67960        61904   0.73888889   0.75505051 
  169000       500000          109   -536757.88        68960        62813          0.7   0.77272727 
  170000       500000          109   -539591.98        69960        63723   0.72222222   0.76262626 
  171000       500000          109   -539480.13        70960        64621   0.72777778   0.76010101 
  172000       500000          109    -538620.3        71960        65538   0.72777778   0.76010101 
  173000       500000          109   -538332.91        72960        66453   0.75555556   0.74747475 
  174000       500000          109   -537041.69        73960        67378   0.74444444   0.75252525 
  175000       500000          109   -539959.51        74960        68293   0.74444444   0.75252525 
  176000       500000          109    -540039.9        75960        69218   0.78333333   0.73484848 
  177000       500000          109   -540597.31        76960        70141   0.70555556   0.77020202 
  178000       500000          109   -539605.29        77960        71048   0.78888889   0.73232323 
  179000       500000          109   -538328.79        78960        71967   0.74444444   0.75252525 
  180000       500000          109   -538322.06        79960        72876   0.76111111   0.74494949 
  181000       500000          109   -539946.43        80960        73783   0.78888889   0.73232323 
  182000       500000          109   -537572.82        81960        74703   0.76666667   0.74242424 
  182984       500000          109   -539950.34        82944        75627   0.71111111   0.76767677 
Loop time of 5210.72 on 20 procs for 82944 steps with 2970 atoms

Performance: 0.688 ns/day, 34.901 hours/ns, 15.918 timesteps/s
99.4% CPU use with 20 MPI tasks x no OpenMP threads

MPI task timing breakdown:
Section |  min time  |  avg time  |  max time  |%varavg| %total
---------------------------------------------------------------
Pair    | 2.1401     | 105.93     | 181.73     | 676.3 |  2.03
Bond    | 0.051699   | 0.1862     | 0.50407    |  34.8 |  0.00
Kspace  | 905.86     | 982        | 1086.4     | 223.2 | 18.85
Neigh   | 254.44     | 260.08     | 271.25     |  36.8 |  4.99
Comm    | 33.499     | 49.635     | 57.931     | 125.7 |  0.95
Output  | 0.012762   | 0.016484   | 0.024282   |   2.8 |  0.00
Modify  | 3807.6     | 3810.9     | 3815.9     |   5.2 | 73.14
Other   |            | 1.954      |            |       |  0.04

Nlocal:        148.500 ave         226 max          16 min
Histogram: 4 2 2 0 0 0 0 0 0 12
Nghost:        4128.60 ave        6386 max        2452 min
Histogram: 8 0 0 0 0 8 0 0 0 4
Neighs:        71283.1 ave      122110 max         596 min
Histogram: 4 0 4 0 0 0 2 2 0 8
FullNghs:      142562.0 ave      238698 max        8448 min
Histogram: 4 4 0 0 0 0 0 0 4 8

Total # of neighbors = 2851236
Ave neighs/atom = 960.01212
Ave special neighs/atom = 0.084848485
Neighbor list builds = 165888
Dangerous builds = 0

  variable cnum equal (${cnum}-1)
  variable cnum equal (109-1)

  unfix swp
  thermo_style custom step temp pe
  write_data  001-dbt_3x3_${layer}L_fa_${type}_${cnum}_${temp}K.data
  write_data  001-dbt_3x3_21L_fa_${type}_${cnum}_${temp}K.data
  write_data  001-dbt_3x3_21L_fa_tet_full_${cnum}_${temp}K.data
  write_data  001-dbt_3x3_21L_fa_tet_full_108_${temp}K.data
  write_data  001-dbt_3x3_21L_fa_tet_full_108_500000K.data
System init for write_data ...
PPPM initialization ...
  using 12-bit tables for long-range coulomb (../kspace.cpp:340)
  G vector (1/distance) = 0.2958869
  grid = 45 45 200
  stencil order = 5
  estimated absolute RMS force accuracy = 0.00034164501
  estimated relative force accuracy = 1.0288538e-06
  using double precision KISS FFT
  3d grid and FFT values/proc = 144150 77234

next temp
jump SELF minimize_temp

  variable ftemp equal v_temp

  # Minimize O-H bond
  group  immobile_1 type 1 2 3 6 7 8
2934 atoms in group immobile_1
  fix  freeze immobile_1 setforce 0.0 0.0 0.0
  minimize  1.0e-6 1.0e-9 1000 10000
PPPM initialization ...
  using 12-bit tables for long-range coulomb (../kspace.cpp:340)
  G vector (1/distance) = 0.2958869
  grid = 45 45 200
  stencil order = 5
  estimated absolute RMS force accuracy = 0.00034164501
  estimated relative force accuracy = 1.0288538e-06
  using double precision KISS FFT
  3d grid and FFT values/proc = 144150 77234
Per MPI rank memory allocation (min/avg/max) = 14.01 | 16.78 | 24.40 Mbytes
Step Temp PotEng 
  182984            0   -539950.34 
  182992            0   -540020.21 
Loop time of 0.246167 on 20 procs for 8 steps with 2970 atoms

99.3% CPU use with 20 MPI tasks x no OpenMP threads

Minimization stats:
  Stopping criterion = energy tolerance
  Energy initial, next-to-last, final = 
     -539950.344778826  -540019.920669669  -540020.211928083
  Force two-norm initial, final = 260.89303 22.711199
  Force max component initial, final = 87.094476 10.106152
  Final line search alpha, max atom move = 0.013663666 0.13808709
  Iterations, force evaluations = 8 16

MPI task timing breakdown:
Section |  min time  |  avg time  |  max time  |%varavg| %total
---------------------------------------------------------------
Pair    | 0.00067371 | 0.032567   | 0.055557   |  11.8 | 13.23
Bond    | 2.2471e-05 | 6.0234e-05 | 0.00014911 |   0.0 |  0.02
Kspace  | 0.18333    | 0.20675    | 0.23878    |   4.7 | 83.99
Neigh   | 0          | 0          | 0          |   0.0 |  0.00
Comm    | 0.003042   | 0.0046771  | 0.0057753  |   1.5 |  1.90
Output  | 0          | 0          | 0          |   0.0 |  0.00
Modify  | 2.1978e-05 | 3.7378e-05 | 6.0153e-05 |   0.0 |  0.02
Other   |            | 0.002078   |            |       |  0.84

Nlocal:        148.500 ave         226 max          16 min
Histogram: 4 2 2 0 0 0 0 0 0 12
Nghost:        4128.60 ave        6386 max        2452 min
Histogram: 8 0 0 0 0 8 0 0 0 4
Neighs:        71283.1 ave      122110 max         596 min
Histogram: 4 0 4 0 0 0 2 2 0 8
FullNghs:      142562.0 ave      238698 max        8448 min
Histogram: 4 4 0 0 0 0 0 0 4 8

Total # of neighbors = 2851236
Ave neighs/atom = 960.01212
Ave special neighs/atom = 0.084848485
Neighbor list builds = 0
Dangerous builds = 0
  unfix  freeze
  group immobile_1 delete

  # Minimize formate
  group  immobile_2 type 6 7 8 9 10
2898 atoms in group immobile_2
  fix  freeze immobile_2 setforce 0.0 0.0 0.0
  minimize  1.0e-6 1.0e-9 1000 10000
PPPM initialization ...
  using 12-bit tables for long-range coulomb (../kspace.cpp:340)
  G vector (1/distance) = 0.2958869
  grid = 45 45 200
  stencil order = 5
  estimated absolute RMS force accuracy = 0.00034164501
  estimated relative force accuracy = 1.0288538e-06
  using double precision KISS FFT
  3d grid and FFT values/proc = 144150 77234
Per MPI rank memory allocation (min/avg/max) = 14.01 | 16.78 | 24.40 Mbytes
Step Temp PotEng 
  182992            0   -540020.21 
  183000            0   -540060.13 
  183007            0   -540075.56 
Loop time of 0.431701 on 20 procs for 15 steps with 2970 atoms

99.4% CPU use with 20 MPI tasks x no OpenMP threads

Minimization stats:
  Stopping criterion = energy tolerance
  Energy initial, next-to-last, final = 
     -540020.211928083  -540075.210327967  -540075.563867835
  Force two-norm initial, final = 157.14844 28.052073
  Force max component initial, final = 52.705344 5.2816764
  Final line search alpha, max atom move = 0.0070212577 0.037084011
  Iterations, force evaluations = 15 29

MPI task timing breakdown:
Section |  min time  |  avg time  |  max time  |%varavg| %total
---------------------------------------------------------------
Pair    | 0.0011395  | 0.057541   | 0.097854   |  15.7 | 13.33
Bond    | 3.8971e-05 | 0.00010629 | 0.00028108 |   0.0 |  0.02
Kspace  | 0.32131    | 0.36242    | 0.41906    |   6.3 | 83.95
Neigh   | 0          | 0          | 0          |   0.0 |  0.00
Comm    | 0.0053922  | 0.0082759  | 0.010387   |   2.0 |  1.92
Output  | 3.2321e-05 | 3.6192e-05 | 6.8645e-05 |   0.0 |  0.01
Modify  | 3.5666e-05 | 6.1021e-05 | 7.9246e-05 |   0.0 |  0.01
Other   |            | 0.003258   |            |       |  0.75

Nlocal:        148.500 ave         225 max          16 min
Histogram: 4 2 2 0 0 0 0 0 0 12
Nghost:        4128.60 ave        6386 max        2452 min
Histogram: 8 0 0 0 0 8 0 0 0 4
Neighs:        71282.8 ave      122110 max         596 min
Histogram: 4 0 4 0 0 0 2 2 0 8
FullNghs:      142562.0 ave      238698 max        8448 min
Histogram: 4 4 0 0 0 0 0 0 4 8

Total # of neighbors = 2851236
Ave neighs/atom = 960.01212
Ave special neighs/atom = 0.084848485
Neighbor list builds = 0
Dangerous builds = 0
  unfix  freeze
  group immobile_2 delete

  # Electrostatic relaxation
  fix  swp fe atom/swap 1 1 ${rand} ${temp} ke no types 6 7
  fix  swp fe atom/swap 1 1 755762 ${temp} ke no types 6 7
  fix  swp fe atom/swap 1 1 755762 450000 ke no types 6 7
  thermo 1000
  thermo_style custom step v_ftemp v_cnum pe f_swp[1] f_swp[2] v_rfet3 v_rfeo3
  run ${nsteps}
  run 82944
PPPM initialization ...
  using 12-bit tables for long-range coulomb (../kspace.cpp:340)
  G vector (1/distance) = 0.2958869
  grid = 45 45 200
  stencil order = 5
  estimated absolute RMS force accuracy = 0.00034164501
  estimated relative force accuracy = 1.0288538e-06
  using double precision KISS FFT
  3d grid and FFT values/proc = 144150 77234
Per MPI rank memory allocation (min/avg/max) = 12.88 | 15.66 | 23.28 Mbytes
Step v_ftemp v_cnum PotEng f_swp[1] f_swp[2] v_rfet3 v_rfeo3 
  183007       450000          108   -540075.56            0            0   0.71666667   0.76515152 
  184000       450000          108   -536879.03          993          901   0.73333333   0.75757576 
  185000       450000          108   -537331.23         1993         1808   0.71666667   0.76515152 
  186000       450000          108   -537817.62         2993         2725   0.71666667   0.76515152 
  187000       450000          108   -536615.33         3993         3648   0.74444444   0.75252525 
  188000       450000          108    -536171.4         4993         4559   0.75555556   0.74747475 
  189000       450000          108   -538860.93         5993         5453   0.74444444   0.75252525 
  190000       450000          108   -539361.94         6993         6374   0.73333333   0.75757576 
  191000       450000          108   -539193.97         7993         7274   0.73333333   0.75757576 
  192000       450000          108   -539726.81         8993         8155   0.72222222   0.76262626 
  193000       450000          108   -538725.22         9993         9070   0.73888889   0.75505051 
  194000       450000          108   -540163.41        10993         9972   0.74444444   0.75252525 
  195000       450000          108   -537660.57        11993        10861   0.74444444   0.75252525 
  196000       450000          108   -537063.34        12993        11762   0.76666667   0.74242424 
  197000       450000          108   -539670.32        13993        12673   0.75555556   0.74747475 
  198000       450000          108    -534988.9        14993        13586          0.8   0.72727273 
  199000       450000          108   -537876.67        15993        14490   0.77222222   0.73989899 
  200000       450000          108   -537913.38        16993        15388   0.76666667   0.74242424 
  201000       450000          108   -538783.09        17993        16308   0.71111111   0.76767677 
  202000       450000          108   -538454.94        18993        17213   0.77222222   0.73989899 
  203000       450000          108   -539509.84        19993        18142   0.75555556   0.74747475 
  204000       450000          108   -535420.83        20993        19048   0.73333333   0.75757576 
  205000       450000          108   -535098.45        21993        19954   0.72777778   0.76010101 
  206000       450000          108   -538170.53        22993        20852   0.73333333   0.75757576 
  207000       450000          108   -538100.72        23993        21768   0.73333333   0.75757576 
  208000       450000          108   -537339.06        24993        22659   0.72777778   0.76010101 
  209000       450000          108   -537930.24        25993        23550   0.75555556   0.74747475 
  210000       450000          108   -535290.26        26993        24459   0.76111111   0.74494949 
  211000       450000          108   -538342.74        27993        25359   0.74444444   0.75252525 
  212000       450000          108   -539152.47        28993        26262   0.73333333   0.75757576 
  213000       450000          108   -537739.13        29993        27164   0.71111111   0.76767677 
  214000       450000          108   -540604.64        30993        28058   0.70555556   0.77020202 
  215000       450000          108   -535990.18        31993        28966   0.73333333   0.75757576 
  216000       450000          108   -537219.89        32993        29879         0.75         0.75 
  217000       450000          108   -538778.02        33993        30785   0.73888889   0.75505051 
  218000       450000          108   -538565.91        34993        31705   0.76111111   0.74494949 
  219000       450000          108   -540404.94        35993        32622   0.77222222   0.73989899 
  220000       450000          108   -541097.27        36993        33514   0.76666667   0.74242424 
  221000       450000          108   -538596.42        37993        34421   0.74444444   0.75252525 
  222000       450000          108    -538488.5        38993        35325   0.72222222   0.76262626 
  223000       450000          108   -539780.01        39993        36248   0.75555556   0.74747475 
  224000       450000          108    -540294.9        40993        37169   0.73888889   0.75505051 
  225000       450000          108   -537590.01        41993        38089   0.78888889   0.73232323 
  226000       450000          108   -538788.24        42993        38978   0.73333333   0.75757576 
  227000       450000          108   -538690.25        43993        39886   0.78888889   0.73232323 
  228000       450000          108   -537774.93        44993        40794   0.76111111   0.74494949 
  229000       450000          108   -538554.33        45993        41700   0.75555556   0.74747475 
  230000       450000          108   -536659.29        46993        42602   0.75555556   0.74747475 
  231000       450000          108   -538807.87        47993        43512   0.74444444   0.75252525 
  232000       450000          108    -538040.9        48993        44417         0.75         0.75 
  233000       450000          108   -538994.42        49993        45327   0.71666667   0.76515152 
  234000       450000          108   -539891.94        50993        46221   0.76666667   0.74242424 
  235000       450000          108   -538461.39        51993        47127   0.72777778   0.76010101 
  236000       450000          108   -538355.54        52993        48031   0.71666667   0.76515152 
  237000       450000          108   -538942.85        53993        48932   0.78888889   0.73232323 
  238000       450000          108   -538896.91        54993        49832   0.77777778   0.73737374 
  239000       450000          108   -540331.68        55993        50731   0.72777778   0.76010101 
  240000       450000          108   -538896.49        56993        51646   0.74444444   0.75252525 
  241000       450000          108   -537124.27        57993        52541   0.81666667   0.71969697 
  242000       450000          108    -539606.6        58993        53444   0.78888889   0.73232323 
  243000       450000          108   -537511.01        59993        54353         0.75         0.75 
  244000       450000          108      -541612        60993        55256   0.77777778   0.73737374 
  245000       450000          108   -535703.81        61993        56151   0.77777778   0.73737374 
  246000       450000          108   -538466.16        62993        57063   0.68888889   0.77777778 
  247000       450000          108   -537900.62        63993        57955   0.72222222   0.76262626 
  248000       450000          108   -538691.88        64993        58862   0.77222222   0.73989899 
  249000       450000          108   -536553.92        65993        59761   0.74444444   0.75252525 
  250000       450000          108   -541552.25        66993        60685   0.72777778   0.76010101 
  251000       450000          108   -539132.75        67993        61584   0.74444444   0.75252525 
  252000       450000          108   -539158.35        68993        62493   0.75555556   0.74747475 
  253000       450000          108   -535965.94        69993        63410   0.74444444   0.75252525 
  254000       450000          108   -538489.59        70993        64297   0.76111111   0.74494949 
  255000       450000          108   -537037.23        71993        65205   0.72222222   0.76262626 
  256000       450000          108   -539344.02        72993        66104         0.75         0.75 
  257000       450000          108   -539075.16        73993        67014   0.72777778   0.76010101 
  258000       450000          108   -538285.35        74993        67924   0.70555556   0.77020202 
  259000       450000          108   -538603.09        75993        68826   0.73333333   0.75757576 
  260000       450000          108   -539162.16        76993        69711   0.68888889   0.77777778 
  261000       450000          108   -534370.34        77993        70613   0.76111111   0.74494949 
  262000       450000          108   -538889.47        78993        71509   0.72222222   0.76262626 
  263000       450000          108   -539994.23        79993        72413          0.7   0.77272727 
  264000       450000          108   -536799.93        80993        73316   0.76666667   0.74242424 
  265000       450000          108   -539759.12        81993        74223   0.78333333   0.73484848 
  265951       450000          108   -539508.21        82944        75099   0.72777778   0.76010101 
Loop time of 5227.44 on 20 procs for 82944 steps with 2970 atoms

Performance: 0.685 ns/day, 35.013 hours/ns, 15.867 timesteps/s
99.4% CPU use with 20 MPI tasks x no OpenMP threads

MPI task timing breakdown:
Section |  min time  |  avg time  |  max time  |%varavg| %total
---------------------------------------------------------------
Pair    | 2.1348     | 105.94     | 181.24     | 676.2 |  2.03
Bond    | 0.051636   | 0.18793    | 0.51437    |  35.2 |  0.00
Kspace  | 908.83     | 984.48     | 1088.9     | 222.9 | 18.83
Neigh   | 254.42     | 260.02     | 271.16     |  36.7 |  4.97
Comm    | 33.455     | 49.569     | 57.847     | 125.6 |  0.95
Output  | 0.012726   | 0.016326   | 0.024333   |   2.8 |  0.00
Modify  | 3821.9     | 3825.3     | 3830.3     |   5.2 | 73.18
Other   |            | 1.943      |            |       |  0.04

Nlocal:        148.500 ave         225 max          16 min
Histogram: 4 2 2 0 0 0 0 0 0 12
Nghost:        4130.30 ave        6386 max        2457 min
Histogram: 8 0 0 0 0 8 0 0 0 4
Neighs:        71282.4 ave      122110 max         596 min
Histogram: 4 0 4 0 0 0 2 2 0 8
FullNghs:      142562.0 ave      238698 max        8448 min
Histogram: 4 4 0 0 0 0 0 0 4 8

Total # of neighbors = 2851236
Ave neighs/atom = 960.01212
Ave special neighs/atom = 0.084848485
Neighbor list builds = 165888
Dangerous builds = 0

  variable cnum equal (${cnum}-1)
  variable cnum equal (108-1)

  unfix swp
  thermo_style custom step temp pe
  write_data  001-dbt_3x3_${layer}L_fa_${type}_${cnum}_${temp}K.data
  write_data  001-dbt_3x3_21L_fa_${type}_${cnum}_${temp}K.data
  write_data  001-dbt_3x3_21L_fa_tet_full_${cnum}_${temp}K.data
  write_data  001-dbt_3x3_21L_fa_tet_full_107_${temp}K.data
  write_data  001-dbt_3x3_21L_fa_tet_full_107_450000K.data
System init for write_data ...
PPPM initialization ...
  using 12-bit tables for long-range coulomb (../kspace.cpp:340)
  G vector (1/distance) = 0.2958869
  grid = 45 45 200
  stencil order = 5
  estimated absolute RMS force accuracy = 0.00034164501
  estimated relative force accuracy = 1.0288538e-06
  using double precision KISS FFT
  3d grid and FFT values/proc = 144150 77234

next temp
jump SELF minimize_temp

  variable ftemp equal v_temp

  # Minimize O-H bond
  group  immobile_1 type 1 2 3 6 7 8
2934 atoms in group immobile_1
  fix  freeze immobile_1 setforce 0.0 0.0 0.0
  minimize  1.0e-6 1.0e-9 1000 10000
PPPM initialization ...
  using 12-bit tables for long-range coulomb (../kspace.cpp:340)
  G vector (1/distance) = 0.2958869
  grid = 45 45 200
  stencil order = 5
  estimated absolute RMS force accuracy = 0.00034164501
  estimated relative force accuracy = 1.0288538e-06
  using double precision KISS FFT
  3d grid and FFT values/proc = 144150 77234
Per MPI rank memory allocation (min/avg/max) = 14.01 | 16.78 | 24.40 Mbytes
Step Temp PotEng 
  265951            0   -539508.21 
  265959            0   -539561.27 
Loop time of 0.245785 on 20 procs for 8 steps with 2970 atoms

99.4% CPU use with 20 MPI tasks x no OpenMP threads

Minimization stats:
  Stopping criterion = energy tolerance
  Energy initial, next-to-last, final = 
     -539508.205986829  -539560.757161724  -539561.274512389
  Force two-norm initial, final = 225.25210 22.219714
  Force max component initial, final = 71.989257 10.875981
  Final line search alpha, max atom move = 0.0094976107 0.10329584
  Iterations, force evaluations = 8 16

MPI task timing breakdown:
Section |  min time  |  avg time  |  max time  |%varavg| %total
---------------------------------------------------------------
Pair    | 0.00072198 | 0.032646   | 0.055675   |  11.8 | 13.28
Bond    | 2.1079e-05 | 5.9709e-05 | 0.00015948 |   0.0 |  0.02
Kspace  | 0.18243    | 0.20602    | 0.23814    |   4.8 | 83.82
Neigh   | 0          | 0          | 0          |   0.0 |  0.00
Comm    | 0.0030913  | 0.0048225  | 0.0059588  |   1.5 |  1.96
Output  | 0          | 0          | 0          |   0.0 |  0.00
Modify  | 2.2757e-05 | 3.5495e-05 | 4.5605e-05 |   0.0 |  0.01
Other   |            | 0.002201   |            |       |  0.90

Nlocal:        148.500 ave         225 max          16 min
Histogram: 4 2 2 0 0 0 0 0 0 12
Nghost:        4130.30 ave        6386 max        2457 min
Histogram: 8 0 0 0 0 8 0 0 0 4
Neighs:        71282.4 ave      122110 max         596 min
Histogram: 4 0 4 0 0 0 2 2 0 8
FullNghs:      142562.0 ave      238698 max        8448 min
Histogram: 4 4 0 0 0 0 0 0 4 8

Total # of neighbors = 2851236
Ave neighs/atom = 960.01212
Ave special neighs/atom = 0.084848485
Neighbor list builds = 0
Dangerous builds = 0
  unfix  freeze
  group immobile_1 delete

  # Minimize formate
  group  immobile_2 type 6 7 8 9 10
2898 atoms in group immobile_2
  fix  freeze immobile_2 setforce 0.0 0.0 0.0
  minimize  1.0e-6 1.0e-9 1000 10000
PPPM initialization ...
  using 12-bit tables for long-range coulomb (../kspace.cpp:340)
  G vector (1/distance) = 0.2958869
  grid = 45 45 200
  stencil order = 5
  estimated absolute RMS force accuracy = 0.00034164501
  estimated relative force accuracy = 1.0288538e-06
  using double precision KISS FFT
  3d grid and FFT values/proc = 144150 77234
Per MPI rank memory allocation (min/avg/max) = 14.01 | 16.79 | 24.40 Mbytes
Step Temp PotEng 
  265959            0   -539561.27 
  265976            0   -539615.83 
Loop time of 0.489645 on 20 procs for 17 steps with 2970 atoms

99.4% CPU use with 20 MPI tasks x no OpenMP threads

Minimization stats:
  Stopping criterion = energy tolerance
  Energy initial, next-to-last, final = 
     -539561.274512389  -539615.369712853  -539615.826928289
  Force two-norm initial, final = 138.33699 34.023247
  Force max component initial, final = 41.127803 11.975181
  Final line search alpha, max atom move = 0.0042121271 0.050440987
  Iterations, force evaluations = 17 33

MPI task timing breakdown:
Section |  min time  |  avg time  |  max time  |%varavg| %total
---------------------------------------------------------------
Pair    | 0.0013433  | 0.065216   | 0.11097    |  16.7 | 13.32
Bond    | 4.0149e-05 | 0.00011857 | 0.00032429 |   0.0 |  0.02
Kspace  | 0.36511    | 0.41166    | 0.47571    |   6.7 | 84.07
Neigh   | 0          | 0          | 0          |   0.0 |  0.00
Comm    | 0.0060003  | 0.0092697  | 0.011422   |   2.0 |  1.89
Output  | 0          | 0          | 0          |   0.0 |  0.00
Modify  | 4.7229e-05 | 6.9997e-05 | 9.3189e-05 |   0.0 |  0.01
Other   |            | 0.003306   |            |       |  0.68

Nlocal:        148.500 ave         226 max          16 min
Histogram: 4 2 2 0 0 0 0 0 0 12
Nghost:        4130.30 ave        6386 max        2457 min
Histogram: 8 0 0 0 0 8 0 0 0 4
Neighs:        71282.4 ave      122110 max         596 min
Histogram: 4 0 4 0 0 0 2 2 0 8
FullNghs:      142562.0 ave      238698 max        8448 min
Histogram: 4 4 0 0 0 0 0 0 4 8

Total # of neighbors = 2851236
Ave neighs/atom = 960.01212
Ave special neighs/atom = 0.084848485
Neighbor list builds = 0
Dangerous builds = 0
  unfix  freeze
  group immobile_2 delete

  # Electrostatic relaxation
  fix  swp fe atom/swap 1 1 ${rand} ${temp} ke no types 6 7
  fix  swp fe atom/swap 1 1 4574249 ${temp} ke no types 6 7
  fix  swp fe atom/swap 1 1 4574249 405000 ke no types 6 7
  thermo 1000
  thermo_style custom step v_ftemp v_cnum pe f_swp[1] f_swp[2] v_rfet3 v_rfeo3
  run ${nsteps}
  run 82944
PPPM initialization ...
  using 12-bit tables for long-range coulomb (../kspace.cpp:340)
  G vector (1/distance) = 0.2958869
  grid = 45 45 200
  stencil order = 5
  estimated absolute RMS force accuracy = 0.00034164501
  estimated relative force accuracy = 1.0288538e-06
  using double precision KISS FFT
  3d grid and FFT values/proc = 144150 77234
Per MPI rank memory allocation (min/avg/max) = 12.88 | 15.66 | 23.28 Mbytes
Step v_ftemp v_cnum PotEng f_swp[1] f_swp[2] v_rfet3 v_rfeo3 
  265976       405000          107   -539615.83            0            0         0.75         0.75 
  266000       405000          107    -537964.5           24           17   0.76111111   0.74494949 
  267000       405000          107   -539665.95         1024          918   0.76666667   0.74242424 
  268000       405000          107   -539219.11         2024         1845   0.72777778   0.76010101 
  269000       405000          107   -538201.94         3024         2742         0.75         0.75 
  270000       405000          107   -539024.46         4024         3635   0.79444444   0.72979798 
  271000       405000          107   -539902.44         5024         4515   0.74444444   0.75252525 
  272000       405000          107   -540309.16         6024         5417   0.71111111   0.76767677 
  273000       405000          107   -537946.99         7024         6307         0.75         0.75 
  274000       405000          107   -537804.53         8024         7198   0.73888889   0.75505051 
  275000       405000          107   -538814.06         9024         8102   0.76111111   0.74494949 
  276000       405000          107   -539420.22        10024         8997         0.75         0.75 
  277000       405000          107   -537995.76        11024         9891   0.78333333   0.73484848 
  278000       405000          107   -536778.86        12024        10766   0.74444444   0.75252525 
  279000       405000          107   -537335.39        13024        11656   0.77222222   0.73989899 
  280000       405000          107   -537094.99        14024        12542   0.71666667   0.76515152 
  281000       405000          107      -537469        15024        13430   0.74444444   0.75252525 
  282000       405000          107    -537541.1        16024        14321   0.71666667   0.76515152 
  283000       405000          107   -538771.13        17024        15222   0.73888889   0.75505051 
  284000       405000          107   -537748.39        18024        16117   0.76111111   0.74494949 
  285000       405000          107   -540540.68        19024        17020   0.74444444   0.75252525 
  286000       405000          107   -537997.17        20024        17926   0.75555556   0.74747475 
  287000       405000          107   -536162.63        21024        18819   0.71111111   0.76767677 
  288000       405000          107   -536491.31        22024        19699   0.79444444   0.72979798 
  289000       405000          107   -538626.81        23024        20588   0.80555556   0.72474747 
  290000       405000          107   -537655.49        24024        21485   0.75555556   0.74747475 
  291000       405000          107   -538585.75        25024        22415   0.77777778   0.73737374 
  292000       405000          107   -540668.56        26024        23313         0.75         0.75 
  293000       405000          107   -534362.61        27024        24221   0.73333333   0.75757576 
  294000       405000          107   -538557.39        28024        25117   0.72222222   0.76262626 
  295000       405000          107   -535965.57        29024        26022   0.71666667   0.76515152 
  296000       405000          107    -537457.7        30024        26908   0.73333333   0.75757576 
  297000       405000          107   -536793.47        31024        27794   0.76666667   0.74242424 
  298000       405000          107   -538152.44        32024        28701   0.73888889   0.75505051 
  299000       405000          107   -539625.08        33024        29606   0.74444444   0.75252525 
  300000       405000          107    -535067.6        34024        30483   0.76111111   0.74494949 
  301000       405000          107   -537084.22        35024        31368   0.73888889   0.75505051 
  302000       405000          107   -540081.49        36024        32264   0.76111111   0.74494949 
  303000       405000          107   -540647.49        37024        33159   0.76111111   0.74494949 
  304000       405000          107   -538635.97        38024        34086   0.75555556   0.74747475 
  305000       405000          107   -538602.57        39024        34974   0.73888889   0.75505051 
  306000       405000          107   -538096.53        40024        35863   0.74444444   0.75252525 
  307000       405000          107   -538156.44        41024        36770         0.75         0.75 
  308000       405000          107   -538885.24        42024        37675         0.75         0.75 
  309000       405000          107      -537231        43024        38570   0.74444444   0.75252525 
  310000       405000          107   -538362.75        44024        39459   0.76666667   0.74242424 
  311000       405000          107   -540220.63        45024        40340   0.76111111   0.74494949 
  312000       405000          107   -537993.82        46024        41246   0.73333333   0.75757576 
  313000       405000          107   -539430.77        47024        42124   0.78333333   0.73484848 
  314000       405000          107   -538582.83        48024        43039   0.75555556   0.74747475 
  315000       405000          107   -539721.89        49024        43929   0.73888889   0.75505051 
  316000       405000          107   -538427.14        50024        44838   0.73888889   0.75505051 
  317000       405000          107    -536182.8        51024        45732   0.71666667   0.76515152 
  318000       405000          107   -540926.75        52024        46638   0.74444444   0.75252525 
  319000       405000          107   -538200.93        53024        47532   0.76111111   0.74494949 
  320000       405000          107   -538592.94        54024        48425   0.75555556   0.74747475 
  321000       405000          107   -539939.58        55024        49323   0.72222222   0.76262626 
  322000       405000          107   -539057.17        56024        50219   0.80555556   0.72474747 
  323000       405000          107   -539328.33        57024        51129   0.74444444   0.75252525 
  324000       405000          107   -538483.15        58024        52048   0.68888889   0.77777778 
  325000       405000          107   -539328.51        59024        52932   0.76666667   0.74242424 
  326000       405000          107   -539046.24        60024        53830   0.76111111   0.74494949 
  327000       405000          107   -538630.54        61024        54731   0.77222222   0.73989899 
  328000       405000          107   -540293.96        62024        55632   0.72777778   0.76010101 
  329000       405000          107   -536569.75        63024        56536   0.74444444   0.75252525 
  330000       405000          107   -538030.02        64024        57442   0.72222222   0.76262626 
  331000       405000          107   -537775.87        65024        58329   0.71666667   0.76515152 
  332000       405000          107   -538208.33        66024        59229   0.73888889   0.75505051 
  333000       405000          107    -537761.7        67024        60112   0.74444444   0.75252525 
  334000       405000          107   -540065.76        68024        61011   0.72222222   0.76262626 
  335000       405000          107   -537184.57        69024        61890   0.77222222   0.73989899 
  336000       405000          107   -538217.67        70024        62789   0.71666667   0.76515152 
  337000       405000          107   -539319.98        71024        63678   0.75555556   0.74747475 
  338000       405000          107   -540223.38        72024        64571   0.78333333   0.73484848 
  339000       405000          107   -537303.75        73024        65461   0.81666667   0.71969697 
  340000       405000          107   -536743.39        74024        66345   0.75555556   0.74747475 
  341000       405000          107   -537899.61        75024        67251   0.76666667   0.74242424 
  342000       405000          107   -539704.62        76024        68144   0.71111111   0.76767677 
  343000       405000          107   -536956.87        77024        69042   0.78333333   0.73484848 
  344000       405000          107   -537077.06        78024        69947   0.77222222   0.73989899 
  345000       405000          107   -540038.83        79024        70863   0.76666667   0.74242424 
  346000       405000          107   -537034.73        80024        71777   0.73333333   0.75757576 
  347000       405000          107   -541406.91        81024        72684   0.75555556   0.74747475 
  348000       405000          107   -537163.21        82024        73587   0.75555556   0.74747475 
  348920       405000          107   -538847.29        82944        74419   0.75555556   0.74747475 
Loop time of 5224.36 on 20 procs for 82944 steps with 2970 atoms

Performance: 0.686 ns/day, 34.993 hours/ns, 15.876 timesteps/s
99.4% CPU use with 20 MPI tasks x no OpenMP threads

MPI task timing breakdown:
Section |  min time  |  avg time  |  max time  |%varavg| %total
---------------------------------------------------------------
Pair    | 2.0905     | 105.9      | 181.68     | 676.6 |  2.03
Bond    | 0.049719   | 0.18597    | 0.50166    |  35.2 |  0.00
Kspace  | 908.84     | 984.99     | 1089.4     | 222.9 | 18.85
Neigh   | 254.18     | 260.05     | 271.29     |  37.1 |  4.98
Comm    | 33.464     | 49.694     | 58.059     | 126.2 |  0.95
Output  | 0.01293    | 0.016835   | 0.024864   |   2.9 |  0.00
Modify  | 3818.2     | 3821.6     | 3826.6     |   5.2 | 73.15
Other   |            | 1.937      |            |       |  0.04

Nlocal:        148.500 ave         226 max          16 min
Histogram: 4 2 2 0 0 0 0 0 0 12
Nghost:        4128.90 ave        6386 max        2453 min
Histogram: 8 0 0 0 0 8 0 0 0 4
Neighs:        71283.4 ave      122110 max         593 min
Histogram: 4 0 4 0 0 0 2 2 0 8
FullNghs:      142562.0 ave      238698 max        8448 min
Histogram: 4 4 0 0 0 0 0 0 4 8

Total # of neighbors = 2851236
Ave neighs/atom = 960.01212
Ave special neighs/atom = 0.084848485
Neighbor list builds = 165888
Dangerous builds = 0

  variable cnum equal (${cnum}-1)
  variable cnum equal (107-1)

  unfix swp
  thermo_style custom step temp pe
  write_data  001-dbt_3x3_${layer}L_fa_${type}_${cnum}_${temp}K.data
  write_data  001-dbt_3x3_21L_fa_${type}_${cnum}_${temp}K.data
  write_data  001-dbt_3x3_21L_fa_tet_full_${cnum}_${temp}K.data
  write_data  001-dbt_3x3_21L_fa_tet_full_106_${temp}K.data
  write_data  001-dbt_3x3_21L_fa_tet_full_106_405000K.data
System init for write_data ...
PPPM initialization ...
  using 12-bit tables for long-range coulomb (../kspace.cpp:340)
  G vector (1/distance) = 0.2958869
  grid = 45 45 200
  stencil order = 5
  estimated absolute RMS force accuracy = 0.00034164501
  estimated relative force accuracy = 1.0288538e-06
  using double precision KISS FFT
  3d grid and FFT values/proc = 144150 77234

next temp
jump SELF minimize_temp

  variable ftemp equal v_temp

  # Minimize O-H bond
  group  immobile_1 type 1 2 3 6 7 8
2934 atoms in group immobile_1
  fix  freeze immobile_1 setforce 0.0 0.0 0.0
  minimize  1.0e-6 1.0e-9 1000 10000
PPPM initialization ...
  using 12-bit tables for long-range coulomb (../kspace.cpp:340)
  G vector (1/distance) = 0.2958869
  grid = 45 45 200
  stencil order = 5
  estimated absolute RMS force accuracy = 0.00034164501
  estimated relative force accuracy = 1.0288538e-06
  using double precision KISS FFT
  3d grid and FFT values/proc = 144150 77234
Per MPI rank memory allocation (min/avg/max) = 14.01 | 16.79 | 24.40 Mbytes
Step Temp PotEng 
  348920            0   -538847.29 
  348925            0   -538874.62 
Loop time of 0.158866 on 20 procs for 5 steps with 2970 atoms

99.5% CPU use with 20 MPI tasks x no OpenMP threads

Minimization stats:
  Stopping criterion = energy tolerance
  Energy initial, next-to-last, final = 
     -538847.292724957   -538874.13925156  -538874.618406977
  Force two-norm initial, final = 172.56796 27.594196
  Force max component initial, final = 56.743591 13.324245
  Final line search alpha, max atom move = 0.0076586362 0.10204554
  Iterations, force evaluations = 5 10

MPI task timing breakdown:
Section |  min time  |  avg time  |  max time  |%varavg| %total
---------------------------------------------------------------
Pair    | 0.00043107 | 0.021208   | 0.036245   |   9.5 | 13.35
Bond    | 1.4846e-05 | 4.1149e-05 | 0.00011833 |   0.0 |  0.03
Kspace  | 0.1176     | 0.13295    | 0.15383    |   3.8 | 83.69
Neigh   | 0          | 0          | 0          |   0.0 |  0.00
Comm    | 0.0019777  | 0.0030283  | 0.0037327  |   1.1 |  1.91
Output  | 0          | 0          | 0          |   0.0 |  0.00
Modify  | 1.2394e-05 | 2.2117e-05 | 2.8363e-05 |   0.0 |  0.01
Other   |            | 0.001616   |            |       |  1.02

Nlocal:        148.500 ave         226 max          16 min
Histogram: 4 2 2 0 0 0 0 0 0 12
Nghost:        4128.90 ave        6386 max        2453 min
Histogram: 8 0 0 0 0 8 0 0 0 4
Neighs:        71283.4 ave      122110 max         593 min
Histogram: 4 0 4 0 0 0 2 2 0 8
FullNghs:      142562.0 ave      238698 max        8448 min
Histogram: 4 4 0 0 0 0 0 0 4 8

Total # of neighbors = 2851236
Ave neighs/atom = 960.01212
Ave special neighs/atom = 0.084848485
Neighbor list builds = 0
Dangerous builds = 0
  unfix  freeze
  group immobile_1 delete

  # Minimize formate
  group  immobile_2 type 6 7 8 9 10
2898 atoms in group immobile_2
  fix  freeze immobile_2 setforce 0.0 0.0 0.0
  minimize  1.0e-6 1.0e-9 1000 10000
PPPM initialization ...
  using 12-bit tables for long-range coulomb (../kspace.cpp:340)
  G vector (1/distance) = 0.2958869
  grid = 45 45 200
  stencil order = 5
  estimated absolute RMS force accuracy = 0.00034164501
  estimated relative force accuracy = 1.0288538e-06
  using double precision KISS FFT
  3d grid and FFT values/proc = 144150 77234
Per MPI rank memory allocation (min/avg/max) = 14.01 | 16.79 | 24.40 Mbytes
Step Temp PotEng 
  348925            0   -538874.62 
  348939            0   -538904.03 
Loop time of 0.40383 on 20 procs for 14 steps with 2970 atoms

99.4% CPU use with 20 MPI tasks x no OpenMP threads

Minimization stats:
  Stopping criterion = energy tolerance
  Energy initial, next-to-last, final = 
     -538874.618406977  -538903.719208526  -538904.034573945
  Force two-norm initial, final = 116.73859 20.820752
  Force max component initial, final = 39.830666 5.5516438
  Final line search alpha, max atom move = 0.0038478404 0.021361839
  Iterations, force evaluations = 14 27

MPI task timing breakdown:
Section |  min time  |  avg time  |  max time  |%varavg| %total
---------------------------------------------------------------
Pair    | 0.0010805  | 0.053812   | 0.091881   |  15.2 | 13.33
Bond    | 3.3405e-05 | 0.00010128 | 0.0003046  |   0.0 |  0.03
Kspace  | 0.3003     | 0.3392     | 0.39213    |   6.1 | 84.00
Neigh   | 0          | 0          | 0          |   0.0 |  0.00
Comm    | 0.0049321  | 0.007749   | 0.0096603  |   1.9 |  1.92
Output  | 0          | 0          | 0          |   0.0 |  0.00
Modify  | 3.4745e-05 | 5.7519e-05 | 7.3816e-05 |   0.0 |  0.01
Other   |            | 0.002913   |            |       |  0.72

Nlocal:        148.500 ave         225 max          16 min
Histogram: 4 2 2 0 0 0 0 0 0 12
Nghost:        4128.90 ave        6386 max        2453 min
Histogram: 8 0 0 0 0 8 0 0 0 4
Neighs:        71283.4 ave      122110 max         593 min
Histogram: 4 0 4 0 0 0 2 2 0 8
FullNghs:      142562.0 ave      238698 max        8448 min
Histogram: 4 4 0 0 0 0 0 0 4 8

Total # of neighbors = 2851236
Ave neighs/atom = 960.01212
Ave special neighs/atom = 0.084848485
Neighbor list builds = 0
Dangerous builds = 0
  unfix  freeze
  group immobile_2 delete

  # Electrostatic relaxation
  fix  swp fe atom/swap 1 1 ${rand} ${temp} ke no types 6 7
  fix  swp fe atom/swap 1 1 5979850 ${temp} ke no types 6 7
  fix  swp fe atom/swap 1 1 5979850 364500 ke no types 6 7
  thermo 1000
  thermo_style custom step v_ftemp v_cnum pe f_swp[1] f_swp[2] v_rfet3 v_rfeo3
  run ${nsteps}
  run 82944
PPPM initialization ...
  using 12-bit tables for long-range coulomb (../kspace.cpp:340)
  G vector (1/distance) = 0.2958869
  grid = 45 45 200
  stencil order = 5
  estimated absolute RMS force accuracy = 0.00034164501
  estimated relative force accuracy = 1.0288538e-06
  using double precision KISS FFT
  3d grid and FFT values/proc = 144150 77234
Per MPI rank memory allocation (min/avg/max) = 12.88 | 15.66 | 23.28 Mbytes
Step v_ftemp v_cnum PotEng f_swp[1] f_swp[2] v_rfet3 v_rfeo3 
  348939       364500          106   -538904.03            0            0   0.77777778   0.73737374 
  349000       364500          106   -538185.38           61           51   0.76666667   0.74242424 
  350000       364500          106    -541599.6         1061          947   0.76111111   0.74494949 
  351000       364500          106   -538874.73         2061         1830   0.77222222   0.73989899 
  352000       364500          106   -537425.41         3061         2696   0.74444444   0.75252525 
  353000       364500          106   -538739.56         4061         3581   0.73333333   0.75757576 
  354000       364500          106   -538082.43         5061         4465   0.72222222   0.76262626 
  355000       364500          106   -537127.02         6061         5374   0.77222222   0.73989899 
  356000       364500          106   -539666.44         7061         6269   0.77777778   0.73737374 
  357000       364500          106   -537138.46         8061         7178   0.70555556   0.77020202 
  358000       364500          106   -536831.19         9061         8079   0.73333333   0.75757576 
  359000       364500          106   -539532.77        10061         8960   0.77222222   0.73989899 
  360000       364500          106   -539342.03        11061         9842   0.74444444   0.75252525 
  361000       364500          106   -539200.42        12061        10748   0.79444444   0.72979798 
  362000       364500          106   -538930.37        13061        11629   0.74444444   0.75252525 
  363000       364500          106   -538186.61        14061        12530   0.74444444   0.75252525 
  364000       364500          106    -537845.3        15061        13433   0.68888889   0.77777778 
  365000       364500          106   -536826.65        16061        14331   0.76666667   0.74242424 
  366000       364500          106   -537476.23        17061        15205   0.78888889   0.73232323 
  367000       364500          106   -537787.65        18061        16098   0.76666667   0.74242424 
  368000       364500          106    -537491.8        19061        17006   0.78333333   0.73484848 
  369000       364500          106   -537837.11        20061        17889   0.72222222   0.76262626 
  370000       364500          106    -538575.5        21061        18770   0.79444444   0.72979798 
  371000       364500          106   -538480.79        22061        19646   0.76666667   0.74242424 
  372000       364500          106   -539300.67        23061        20568   0.72777778   0.76010101 
  373000       364500          106   -539344.01        24061        21471   0.75555556   0.74747475 
  374000       364500          106   -539434.11        25061        22382   0.76666667   0.74242424 
  375000       364500          106   -537521.84        26061        23264   0.78888889   0.73232323 
  376000       364500          106      -536285        27061        24137   0.77777778   0.73737374 
  377000       364500          106   -538733.04        28061        25041   0.74444444   0.75252525 
  378000       364500          106   -539652.69        29061        25920         0.75         0.75 
  379000       364500          106   -541316.46        30061        26816   0.77222222   0.73989899 
  380000       364500          106   -539612.12        31061        27715   0.73888889   0.75505051 
  381000       364500          106   -541184.89        32061        28624   0.75555556   0.74747475 
  382000       364500          106   -538077.74        33061        29521   0.78333333   0.73484848 
  383000       364500          106   -539873.82        34061        30425   0.72777778   0.76010101 
  384000       364500          106   -540797.44        35061        31317         0.75         0.75 
  385000       364500          106   -536903.08        36061        32206   0.82777778   0.71464646 
  386000       364500          106   -535925.26        37061        33080         0.75         0.75 
  387000       364500          106   -537856.03        38061        33961   0.72777778   0.76010101 
  388000       364500          106   -537865.42        39061        34857          0.7   0.77272727 
  389000       364500          106   -538141.71        40061        35758         0.75         0.75 
  390000       364500          106   -539601.91        41061        36653   0.72777778   0.76010101 
  391000       364500          106   -537654.75        42061        37553   0.73888889   0.75505051 
  392000       364500          106   -541649.12        43061        38451   0.74444444   0.75252525 
  393000       364500          106   -538733.75        44061        39326          0.8   0.72727273 
  394000       364500          106   -539841.77        45061        40219   0.76666667   0.74242424 
  395000       364500          106   -539492.54        46061        41108   0.77222222   0.73989899 
  396000       364500          106   -537807.95        47061        42008   0.80555556   0.72474747 
  397000       364500          106    -538162.4        48061        42894   0.78333333   0.73484848 
  398000       364500          106   -536003.33        49061        43786   0.75555556   0.74747475 
  399000       364500          106   -538411.22        50061        44676   0.76111111   0.74494949 
  400000       364500          106   -540510.69        51061        45555         0.75         0.75 
  401000       364500          106   -540395.38        52061        46461   0.72222222   0.76262626 
  402000       364500          106   -540159.99        53061        47336   0.73333333   0.75757576 
  403000       364500          106   -541170.46        54061        48231   0.73888889   0.75505051 
  404000       364500          106   -537781.58        55061        49112   0.75555556   0.74747475 
  405000       364500          106   -537455.93        56061        50022         0.75         0.75 
  406000       364500          106   -540425.83        57061        50890   0.72777778   0.76010101 
  407000       364500          106   -538315.42        58061        51778   0.73888889   0.75505051 
  408000       364500          106   -537832.99        59061        52642   0.78888889   0.73232323 
  409000       364500          106   -540261.53        60061        53530   0.79444444   0.72979798 
  410000       364500          106   -539706.85        61061        54422   0.72777778   0.76010101 
  411000       364500          106   -539929.29        62061        55313   0.73333333   0.75757576 
  412000       364500          106   -537505.67        63061        56206   0.77777778   0.73737374 
  413000       364500          106   -537386.94        64061        57096   0.68333333   0.78030303 
[...]
 9052000            2            2    -545197.3        76342            0            1   0.63636364 
 9053000            2            2    -545197.3        77342            0            1   0.63636364 
 9054000            2            2    -545197.3        78342            0            1   0.63636364 
 9055000            2            2    -545197.3        79342            0            1   0.63636364 
 9056000            2            2    -545197.3        80342            0            1   0.63636364 
 9057000            2            2    -545197.3        81342            0            1   0.63636364 
 9058000            2            2    -545197.3        82342            0            1   0.63636364 
 9058602            2            2    -545197.3        82944            0            1   0.63636364 
Loop time of 5196.28 on 20 procs for 82944 steps with 2970 atoms

Performance: 0.690 ns/day, 34.804 hours/ns, 15.962 timesteps/s
99.4% CPU use with 20 MPI tasks x no OpenMP threads

MPI task timing breakdown:
Section |  min time  |  avg time  |  max time  |%varavg| %total
---------------------------------------------------------------
Pair    | 1.6702     | 105.8      | 181.29     | 678.0 |  2.04
Bond    | 0.053222   | 0.16771    | 0.39817    |  30.8 |  0.00
Kspace  | 899.51     | 975.4      | 1080.1     | 224.4 | 18.77
Neigh   | 254.07     | 260        | 271.13     |  36.3 |  5.00
Comm    | 32.894     | 48.953     | 57.357     | 125.1 |  0.94
Output  | 0.013102   | 0.0167     | 0.024498   |   2.8 |  0.00
Modify  | 3800.8     | 3804.1     | 3809.1     |   5.2 | 73.21
Other   |            | 1.847      |            |       |  0.04

Nlocal:        148.500 ave         225 max          16 min
Histogram: 4 2 2 0 0 0 0 0 0 12
Nghost:        4129.80 ave        6386 max        2457 min
Histogram: 8 0 0 0 0 8 0 0 0 4
Neighs:        71284.8 ave      122110 max         602 min
Histogram: 4 0 4 0 0 0 2 2 0 8
FullNghs:      142562.0 ave      238698 max        8448 min
Histogram: 4 4 0 0 0 0 0 0 4 8

Total # of neighbors = 2851236
Ave neighs/atom = 960.01212
Ave special neighs/atom = 0.084848485
Neighbor list builds = 165888
Dangerous builds = 0

  variable cnum equal (${cnum}-1)
  variable cnum equal (2-1)

  unfix swp
  thermo_style custom step temp pe
  write_data  001-dbt_3x3_${layer}L_fa_${type}_${cnum}_${temp}K.data
  write_data  001-dbt_3x3_21L_fa_${type}_${cnum}_${temp}K.data
  write_data  001-dbt_3x3_21L_fa_tet_full_${cnum}_${temp}K.data
  write_data  001-dbt_3x3_21L_fa_tet_full_1_${temp}K.data
  write_data  001-dbt_3x3_21L_fa_tet_full_1_2K.data
System init for write_data ...
PPPM initialization ...
  using 12-bit tables for long-range coulomb (../kspace.cpp:340)
  G vector (1/distance) = 0.2958869
  grid = 45 45 200
  stencil order = 5
  estimated absolute RMS force accuracy = 0.00034164501
  estimated relative force accuracy = 1.0288538e-06
  using double precision KISS FFT
  3d grid and FFT values/proc = 144150 77234

next temp
jump SELF minimize_temp

  variable ftemp equal v_temp

  # Minimize O-H bond
  group  immobile_1 type 1 2 3 6 7 8
2934 atoms in group immobile_1
  fix  freeze immobile_1 setforce 0.0 0.0 0.0
  minimize  1.0e-6 1.0e-9 1000 10000
PPPM initialization ...
  using 12-bit tables for long-range coulomb (../kspace.cpp:340)
  G vector (1/distance) = 0.2958869
  grid = 45 45 200
  stencil order = 5
  estimated absolute RMS force accuracy = 0.00034164501
  estimated relative force accuracy = 1.0288538e-06
  using double precision KISS FFT
  3d grid and FFT values/proc = 144150 77234
Per MPI rank memory allocation (min/avg/max) = 14.01 | 16.79 | 24.40 Mbytes
Step Temp PotEng 
 9058602            0    -545197.3 
 9058603            0    -545197.3 
Loop time of 0.598587 on 20 procs for 1 steps with 2970 atoms

99.4% CPU use with 20 MPI tasks x no OpenMP threads

Minimization stats:
  Stopping criterion = linesearch alpha is zero
  Energy initial, next-to-last, final = 
     -545197.298044998  -545197.298044998  -545197.298044998
  Force two-norm initial, final = 0.10940879 0.10940879
  Force max component initial, final = 0.052953261 0.052953261
  Final line search alpha, max atom move = 9.5367432e-07 5.0500165e-08
  Iterations, force evaluations = 1 41

MPI task timing breakdown:
Section |  min time  |  avg time  |  max time  |%varavg| %total
---------------------------------------------------------------
Pair    | 0.0013072  | 0.080384   | 0.1373     |  18.6 | 13.43
Bond    | 5.0084e-05 | 0.00013863 | 0.00036496 |   0.0 |  0.02
Kspace  | 0.44525    | 0.50325    | 0.58258    |   7.5 | 84.07
Neigh   | 0          | 0          | 0          |   0.0 |  0.00
Comm    | 0.0072767  | 0.011358   | 0.013887   |   2.3 |  1.90
Output  | 0          | 0          | 0          |   0.0 |  0.00
Modify  | 5.1684e-05 | 8.6125e-05 | 0.00010547 |   0.0 |  0.01
Other   |            | 0.003366   |            |       |  0.56

Nlocal:        148.500 ave         225 max          16 min
Histogram: 4 2 2 0 0 0 0 0 0 12
Nghost:        4129.80 ave        6386 max        2457 min
Histogram: 8 0 0 0 0 8 0 0 0 4
Neighs:        71284.8 ave      122110 max         602 min
Histogram: 4 0 4 0 0 0 2 2 0 8
FullNghs:      142562.0 ave      238698 max        8448 min
Histogram: 4 4 0 0 0 0 0 0 4 8

Total # of neighbors = 2851236
Ave neighs/atom = 960.01212
Ave special neighs/atom = 0.084848485
Neighbor list builds = 0
Dangerous builds = 0
  unfix  freeze
  group immobile_1 delete

  # Minimize formate
  group  immobile_2 type 6 7 8 9 10
2898 atoms in group immobile_2
  fix  freeze immobile_2 setforce 0.0 0.0 0.0
  minimize  1.0e-6 1.0e-9 1000 10000
PPPM initialization ...
  using 12-bit tables for long-range coulomb (../kspace.cpp:340)
  G vector (1/distance) = 0.2958869
  grid = 45 45 200
  stencil order = 5
  estimated absolute RMS force accuracy = 0.00034164501
  estimated relative force accuracy = 1.0288538e-06
  using double precision KISS FFT
  3d grid and FFT values/proc = 144150 77234
Per MPI rank memory allocation (min/avg/max) = 14.01 | 16.79 | 24.40 Mbytes
Step Temp PotEng 
 9058603            0    -545197.3 
 9058604            0    -545197.3 
Loop time of 0.0438041 on 20 procs for 1 steps with 2970 atoms

98.9% CPU use with 20 MPI tasks x no OpenMP threads

Minimization stats:
  Stopping criterion = energy tolerance
  Energy initial, next-to-last, final = 
     -545197.298044998  -545197.298044998  -545197.300434181
  Force two-norm initial, final = 3.0827739 2.7967341
  Force max component initial, final = 0.68190279 0.55454097
  Final line search alpha, max atom move = 0.14664847 0.081322583
  Iterations, force evaluations = 1 2

MPI task timing breakdown:
Section |  min time  |  avg time  |  max time  |%varavg| %total
---------------------------------------------------------------
Pair    | 9.8484e-05 | 0.0057879  | 0.0098462  |   5.0 | 13.21
Bond    | 4.0149e-06 | 1.1423e-05 | 3.124e-05  |   0.0 |  0.03
Kspace  | 0.03211    | 0.036245   | 0.041962   |   2.0 | 82.74
Neigh   | 0          | 0          | 0          |   0.0 |  0.00
Comm    | 0.00051018 | 0.00081996 | 0.0010377  |   0.0 |  1.87
Output  | 0          | 0          | 0          |   0.0 |  0.00
Modify  | 4.587e-06  | 7.182e-06  | 9.657e-06  |   0.0 |  0.02
Other   |            | 0.0009329  |            |       |  2.13

Nlocal:        148.500 ave         225 max          16 min
Histogram: 4 2 2 0 0 0 0 0 0 12
Nghost:        4129.80 ave        6386 max        2457 min
Histogram: 8 0 0 0 0 8 0 0 0 4
Neighs:        71284.8 ave      122110 max         602 min
Histogram: 4 0 4 0 0 0 2 2 0 8
FullNghs:      142562.0 ave      238698 max        8448 min
Histogram: 4 4 0 0 0 0 0 0 4 8

Total # of neighbors = 2851236
Ave neighs/atom = 960.01212
Ave special neighs/atom = 0.084848485
Neighbor list builds = 0
Dangerous builds = 0
  unfix  freeze
  group immobile_2 delete

  # Electrostatic relaxation
  fix  swp fe atom/swap 1 1 ${rand} ${temp} ke no types 6 7
  fix  swp fe atom/swap 1 1 4097646 ${temp} ke no types 6 7
  fix  swp fe atom/swap 1 1 4097646 1 ke no types 6 7
  thermo 1000
  thermo_style custom step v_ftemp v_cnum pe f_swp[1] f_swp[2] v_rfet3 v_rfeo3
  run ${nsteps}
  run 82944
PPPM initialization ...
  using 12-bit tables for long-range coulomb (../kspace.cpp:340)
  G vector (1/distance) = 0.2958869
  grid = 45 45 200
  stencil order = 5
  estimated absolute RMS force accuracy = 0.00034164501
  estimated relative force accuracy = 1.0288538e-06
  using double precision KISS FFT
  3d grid and FFT values/proc = 144150 77234
Per MPI rank memory allocation (min/avg/max) = 12.88 | 15.67 | 23.28 Mbytes
Step v_ftemp v_cnum PotEng f_swp[1] f_swp[2] v_rfet3 v_rfeo3 
 9058604            1            1    -545197.3            0            0            1   0.63636364 
 9059000            1            1    -545197.3          396            0            1   0.63636364 
 9060000            1            1    -545197.3         1396            0            1   0.63636364 
 9061000            1            1    -545197.3         2396            0            1   0.63636364 
 9062000            1            1    -545197.3         3396            0            1   0.63636364 
 9063000            1            1    -545197.3         4396            0            1   0.63636364 
 9064000            1            1    -545197.3         5396            0            1   0.63636364 
 9065000            1            1    -545197.3         6396            0            1   0.63636364 
 9066000            1            1    -545197.3         7396            0            1   0.63636364 
 9067000            1            1    -545197.3         8396            0            1   0.63636364 
 9068000            1            1    -545197.3         9396            0            1   0.63636364 
 9069000            1            1    -545197.3        10396            0            1   0.63636364 
 9070000            1            1    -545197.3        11396            0            1   0.63636364 
 9071000            1            1    -545197.3        12396            0            1   0.63636364 
 9072000            1            1    -545197.3        13396            0            1   0.63636364 
 9073000            1            1    -545197.3        14396            0            1   0.63636364 
 9074000            1            1    -545197.3        15396            0            1   0.63636364 
 9075000            1            1    -545197.3        16396            0            1   0.63636364 
 9076000            1            1    -545197.3        17396            0            1   0.63636364 
 9077000            1            1    -545197.3        18396            0            1   0.63636364 
 9078000            1            1    -545197.3        19396            0            1   0.63636364 
 9079000            1            1    -545197.3        20396            0            1   0.63636364 
 9080000            1            1    -545197.3        21396            0            1   0.63636364 
 9081000            1            1    -545197.3        22396            0            1   0.63636364 
 9082000            1            1    -545197.3        23396            0            1   0.63636364 
 9083000            1            1    -545197.3        24396            0            1   0.63636364 
 9084000            1            1    -545197.3        25396            0            1   0.63636364 
 9085000            1            1    -545197.3        26396            0            1   0.63636364 
 9086000            1            1    -545197.3        27396            0            1   0.63636364 
 9087000            1            1    -545197.3        28396            0            1   0.63636364 
 9088000            1            1    -545197.3        29396            0            1   0.63636364 
 9089000            1            1    -545197.3        30396            0            1   0.63636364 
 9090000            1            1    -545197.3        31396            0            1   0.63636364 
 9091000            1            1    -545197.3        32396            0            1   0.63636364 
 9092000            1            1    -545197.3        33396            0            1   0.63636364 
 9093000            1            1    -545197.3        34396            0            1   0.63636364 
 9094000            1            1    -545197.3        35396            0            1   0.63636364 
 9095000            1            1    -545197.3        36396            0            1   0.63636364 
 9096000            1            1    -545197.3        37396            0            1   0.63636364 
 9097000            1            1    -545197.3        38396            0            1   0.63636364 
 9098000            1            1    -545197.3        39396            0            1   0.63636364 
 9099000            1            1    -545197.3        40396            0            1   0.63636364 
 9100000            1            1    -545197.3        41396            0            1   0.63636364 
 9101000            1            1    -545197.3        42396            0            1   0.63636364 
 9102000            1            1    -545197.3        43396            0            1   0.63636364 
 9103000            1            1    -545197.3        44396            0            1   0.63636364 
 9104000            1            1    -545197.3        45396            0            1   0.63636364 
 9105000            1            1    -545197.3        46396            0            1   0.63636364 
 9106000            1            1    -545197.3        47396            0            1   0.63636364 
 9107000            1            1    -545197.3        48396            0            1   0.63636364 
 9108000            1            1    -545197.3        49396            0            1   0.63636364 
 9109000            1            1    -545197.3        50396            0            1   0.63636364 
 9110000            1            1    -545197.3        51396            0            1   0.63636364 
 9111000            1            1    -545197.3        52396            0            1   0.63636364 
 9112000            1            1    -545197.3        53396            0            1   0.63636364 
 9113000            1            1    -545197.3        54396            0            1   0.63636364 
 9114000            1            1    -545197.3        55396            0            1   0.63636364 
 9115000            1            1    -545197.3        56396            0            1   0.63636364 
 9116000            1            1    -545197.3        57396            0            1   0.63636364 
 9117000            1            1    -545197.3        58396            0            1   0.63636364 
 9118000            1            1    -545197.3        59396            0            1   0.63636364 
 9119000            1            1    -545197.3        60396            0            1   0.63636364 
 9120000            1            1    -545197.3        61396            0            1   0.63636364 
 9121000            1            1    -545197.3        62396            0            1   0.63636364 
 9122000            1            1    -545197.3        63396            0            1   0.63636364 
 9123000            1            1    -545197.3        64396            0            1   0.63636364 
 9124000            1            1    -545197.3        65396            0            1   0.63636364 
 9125000            1            1    -545197.3        66396            0            1   0.63636364 
 9126000            1            1    -545197.3        67396            0            1   0.63636364 
 9127000            1            1    -545197.3        68396            0            1   0.63636364 
 9128000            1            1    -545197.3        69396            0            1   0.63636364 
 9129000            1            1    -545197.3        70396            0            1   0.63636364 
 9130000            1            1    -545197.3        71396            0            1   0.63636364 
 9131000            1            1    -545197.3        72396            0            1   0.63636364 
 9132000            1            1    -545197.3        73396            0            1   0.63636364 
 9133000            1            1    -545197.3        74396            0            1   0.63636364 
 9134000            1            1    -545197.3        75396            0            1   0.63636364 
 9135000            1            1    -545197.3        76396            0            1   0.63636364 
 9136000            1            1    -545197.3        77396            0            1   0.63636364 
 9137000            1            1    -545197.3        78396            0            1   0.63636364 
 9138000            1            1    -545197.3        79396            0            1   0.63636364 
 9139000            1            1    -545197.3        80396            0            1   0.63636364 
 9140000            1            1    -545197.3        81396            0            1   0.63636364 
 9141000            1            1    -545197.3        82396            0            1   0.63636364 
 9141548            1            1    -545197.3        82944            0            1   0.63636364 
Loop time of 5194.54 on 20 procs for 82944 steps with 2970 atoms

Performance: 0.690 ns/day, 34.793 hours/ns, 15.968 timesteps/s
99.4% CPU use with 20 MPI tasks x no OpenMP threads

MPI task timing breakdown:
Section |  min time  |  avg time  |  max time  |%varavg| %total
---------------------------------------------------------------
Pair    | 1.6398     | 105.79     | 181.41     | 677.9 |  2.04
Bond    | 0.053636   | 0.16538    | 0.37792    |  30.4 |  0.00
Kspace  | 899.03     | 975.05     | 1079.8     | 224.4 | 18.77
Neigh   | 254.05     | 259.98     | 271.11     |  36.5 |  5.00
Comm    | 32.842     | 48.978     | 57.396     | 125.7 |  0.94
Output  | 0.013514   | 0.017102   | 0.025068   |   2.8 |  0.00
Modify  | 3799.4     | 3802.7     | 3807.8     |   5.2 | 73.21
Other   |            | 1.86       |            |       |  0.04

Nlocal:        148.500 ave         225 max          16 min
Histogram: 4 2 2 0 0 0 0 0 0 12
Nghost:        4129.80 ave        6386 max        2457 min
Histogram: 8 0 0 0 0 8 0 0 0 4
Neighs:        71284.8 ave      122110 max         602 min
Histogram: 4 0 4 0 0 0 2 2 0 8
FullNghs:      142562.0 ave      238698 max        8448 min
Histogram: 4 4 0 0 0 0 0 0 4 8

Total # of neighbors = 2851236
Ave neighs/atom = 960.01212
Ave special neighs/atom = 0.084848485
Neighbor list builds = 165888
Dangerous builds = 0

  variable cnum equal (${cnum}-1)
  variable cnum equal (1-1)

  unfix swp
  thermo_style custom step temp pe
  write_data  001-dbt_3x3_${layer}L_fa_${type}_${cnum}_${temp}K.data
  write_data  001-dbt_3x3_21L_fa_${type}_${cnum}_${temp}K.data
  write_data  001-dbt_3x3_21L_fa_tet_full_${cnum}_${temp}K.data
  write_data  001-dbt_3x3_21L_fa_tet_full_0_${temp}K.data
  write_data  001-dbt_3x3_21L_fa_tet_full_0_1K.data
System init for write_data ...
PPPM initialization ...
  using 12-bit tables for long-range coulomb (../kspace.cpp:340)
  G vector (1/distance) = 0.2958869
  grid = 45 45 200
  stencil order = 5
  estimated absolute RMS force accuracy = 0.00034164501
  estimated relative force accuracy = 1.0288538e-06
  using double precision KISS FFT
  3d grid and FFT values/proc = 144150 77234

next temp
jump SELF minimize_temp

write_data  001-dbt_3x3_${layer}L_fa_${type}_qeq.data
write_data  001-dbt_3x3_21L_fa_${type}_qeq.data
write_data  001-dbt_3x3_21L_fa_tet_full_qeq.data
System init for write_data ...
PPPM initialization ...
  using 12-bit tables for long-range coulomb (../kspace.cpp:340)
  G vector (1/distance) = 0.2958869
  grid = 45 45 200
  stencil order = 5
  estimated absolute RMS force accuracy = 0.00034164501
  estimated relative force accuracy = 1.0288538e-06
  using double precision KISS FFT
  3d grid and FFT values/proc = 144150 77234
Total wall time: 139:33:27
