LAMMPS data file via write_data, version 17 Feb 2022, timestep = 0

460 atoms
8 atom types
0 bonds
4 bond types
0 angles
4 angle types
0 dihedrals
2 dihedral types
0 impropers
1 improper types

0 8.48 xlo xhi
0 8.48 ylo yhi
0 84.8 zlo zhi

Masses

1 12.011
2 1.008
3 15.9994
4 15.9994
5 1.008
6 55.845
7 55.845
8 15.9994

Pair Coeffs # lj/cut/coul/cut

1 0.0988 3.31521
2 0.0161 2.4473
3 0.1463 3.04812
4 0.093 3.24287
5 0.0047 0.537925
6 9.0298e-07 4.9062
7 9.0298e-07 4.9062
8 0.1554 3.16554

Atoms # full

1 0 7 1.575 0.258417 4.498416999999999 76.578417 0 0 0
2 0 7 1.575 6.618416999999999 2.3784170000000002 76.578417 0 0 0
3 0 7 1.575 2.3784170000000002 6.618416999999999 76.578417 0 0 0
4 0 7 1.575 4.498416999999999 0.258417 76.578417 0 0 0
5 0 8 -1.05 6.581580999999999 0.295252 76.615252 0 0 0
6 0 8 -1.05 0.295252 6.581580999999999 76.615252 0 0 0
7 0 8 -1.05 4.535251999999999 2.3415820000000003 76.615252 0 0 0
8 0 8 -1.05 2.3415820000000003 4.535251999999999 76.615252 0 0 0
9 0 8 -1.05 6.581580999999999 6.581580999999999 74.421581 0 0 0
10 0 8 -1.05 2.415252 2.415252 70.25525199999998 0 0 0
11 0 8 -1.05 6.655251999999999 4.461582 76.54158199999999 0 0 0
12 0 8 -1.05 2.3415820000000003 4.535251999999999 68.135252 0 0 0
13 0 8 -1.05 0.22158200000000006 6.655251999999999 72.30158199999998 1 0 0
14 0 8 -1.05 0.295252 2.3415820000000003 72.37525199999999 0 0 0
15 0 8 -1.05 4.461582 0.22158200000000006 74.49525199999998 0 1 0
16 0 8 -1.05 4.535251999999999 0.295252 70.18158199999998 0 0 0
17 0 8 -1.05 2.3415820000000003 6.581580999999999 70.18158199999998 0 0 0
18 0 8 -1.05 6.655251999999999 2.415252 74.49525199999998 0 0 0
19 0 8 -1.05 4.535251999999999 2.3415820000000003 68.135252 0 0 0
20 0 8 -1.05 4.461582 6.655251999999999 76.54158199999999 0 0 0
21 0 8 -1.05 6.581580999999999 4.535251999999999 72.37525199999999 0 0 0
22 0 8 -1.05 2.415252 4.461582 72.30158199999998 0 0 0
23 0 8 -1.05 0.295252 0.295252 74.421581 0 0 0
24 0 8 -1.05 0.22158200000000006 0.22158200000000006 70.25525199999998 1 1 0
25 0 8 -1.05 2.415252 0.22158200000000006 8.701581999999998 0 1 0
26 0 8 -1.05 6.581580999999999 2.3415820000000003 70.18158199999998 0 0 0
27 0 8 -1.05 2.415252 6.655251999999999 74.49525199999998 0 0 0
28 0 8 -1.05 2.3415820000000003 0.295252 72.37525199999999 0 0 0
29 0 8 -1.05 6.655251999999999 0.22158200000000006 72.30158199999998 0 1 0
30 0 8 -1.05 4.535251999999999 4.535251999999999 74.421581 0 0 0
31 0 8 -1.05 4.461582 4.461582 70.25525199999998 0 0 0
32 0 8 -1.05 0.295252 6.581580999999999 68.135252 0 0 0
33 0 8 -1.05 0.22158200000000006 2.415252 8.701581999999998 1 0 0
34 0 8 -1.05 0.22158200000000006 2.415252 76.54158199999999 1 0 0
35 0 8 -1.05 2.3415820000000003 2.3415820000000003 74.421581 0 0 0
36 0 8 -1.05 6.655251999999999 6.655251999999999 70.25525199999998 0 0 0
37 0 8 -1.05 0.295252 4.535251999999999 70.18158199999998 0 0 0
38 0 8 -1.05 0.22158200000000006 4.461582 74.49525199999998 1 0 0
39 0 8 -1.05 4.535251999999999 6.581580999999999 72.37525199999999 0 0 0
40 0 8 -1.05 4.461582 2.415252 72.30158199999998 0 0 0
41 0 8 -1.05 6.581580999999999 0.295252 68.135252 0 0 0
42 0 8 -1.05 2.415252 0.22158200000000006 76.54158199999999 0 1 0
43 0 7 1.575 4.498416999999999 4.498416999999999 72.33841699999998 0 0 0
44 0 7 1.575 2.3784170000000002 6.618416999999999 68.09841699999998 0 0 0
45 0 8 -1.05 4.461582 6.655251999999999 8.701581999999998 0 0 0
46 0 7 1.575 6.618416999999999 2.3784170000000002 68.09841699999998 0 0 0
47 0 6 1.05 0.258417 0.258417 72.33841699999998 0 0 0
48 0 6 1.05 6.618416999999999 0.258417 70.21841699999999 0 0 0
49 0 7 1.575 2.3784170000000002 0.258417 74.458417 0 0 0
50 0 7 1.575 4.498416999999999 6.618416999999999 74.458417 0 0 0
51 0 6 1.05 4.498416999999999 2.3784170000000002 70.21841699999999 0 0 0
52 0 6 1.05 0.258417 4.498416999999999 68.09841699999998 0 0 0
53 0 7 1.575 0.258417 2.3784170000000002 74.458417 0 0 0
54 0 8 -1.05 6.655251999999999 4.461582 8.701581999999998 0 0 0
55 0 7 1.575 0.258417 6.618416999999999 70.21841699999999 0 0 0
56 0 7 1.575 2.3784170000000002 4.498416999999999 70.21841699999999 0 0 0
57 0 7 1.575 1.3184170000000002 1.3184170000000002 9.798417 0 0 0
58 0 6 1.05 7.678417 7.678417 16.158416999999996 0 0 0
59 0 7 1.575 5.5584169999999995 1.3184170000000002 14.038416999999999 0 0 0
60 0 6 1.05 3.4384170000000003 7.678417 11.918417 0 0 0
61 0 7 1.575 1.3184170000000002 5.5584169999999995 14.038416999999999 0 0 0
62 0 7 1.575 7.678417 3.4384170000000003 11.918417 0 0 0
63 0 6 1.05 5.5584169999999995 5.5584169999999995 9.798417 0 0 0
64 0 7 1.575 3.4384170000000003 3.4384170000000003 16.158416999999996 0 0 0
65 0 6 1.05 4.498416999999999 0.258417 8.738416999999998 0 0 0
66 0 7 1.575 2.3784170000000002 2.3784170000000002 12.978416999999999 0 0 0
67 0 7 1.575 6.618416999999999 6.618416999999999 12.978416999999999 0 0 0
68 0 7 1.575 6.618416999999999 4.498416999999999 15.098416999999998 0 0 0
69 0 7 1.575 2.3784170000000002 4.498416999999999 10.858417000000001 0 0 0
70 0 7 1.575 0.258417 6.618416999999999 10.858417000000001 0 0 0
71 0 7 1.575 0.258417 2.3784170000000002 15.098416999999998 0 0 0
72 0 7 1.575 0.258417 4.498416999999999 8.738416999999998 0 0 0
73 0 6 1.05 4.498416999999999 2.3784170000000002 10.858417000000001 0 0 0
74 0 6 1.05 4.498416999999999 6.618416999999999 15.098416999999998 0 0 0
75 0 7 1.575 2.3784170000000002 0.258417 15.098416999999998 0 0 0
76 0 7 1.575 6.618416999999999 0.258417 10.858417000000001 0 0 0
77 0 6 1.05 0.258417 0.258417 12.978416999999999 0 0 0
78 0 6 1.05 6.618416999999999 2.3784170000000002 8.738416999999998 0 0 0
79 0 6 1.05 2.3784170000000002 6.618416999999999 8.738416999999998 0 0 0
80 0 7 1.575 4.498416999999999 4.498416999999999 12.978416999999999 0 0 0
81 0 8 -1.05 2.415252 0.22158200000000006 17.181582 0 1 0
82 0 8 -1.05 6.581580999999999 0.295252 8.775251999999998 0 0 0
83 0 8 -1.05 4.461582 2.415252 12.941581999999999 0 0 0
84 0 8 -1.05 4.535251999999999 6.581580999999999 13.015251999999998 0 0 0
85 0 8 -1.05 0.22158200000000006 4.461582 15.135251999999998 1 0 0
86 0 8 -1.05 0.295252 4.535251999999999 10.821582 0 0 0
87 0 8 -1.05 6.655251999999999 6.655251999999999 10.895252 0 0 0
88 0 8 -1.05 2.3415820000000003 2.3415820000000003 15.061580999999999 0 0 0
89 0 8 -1.05 0.22158200000000006 2.415252 17.181582 1 0 0
90 0 8 -1.05 0.295252 6.581580999999999 8.775251999999998 0 0 0
91 0 8 -1.05 4.461582 4.461582 10.895252 0 0 0
92 0 8 -1.05 4.535251999999999 4.535251999999999 15.061580999999999 0 0 0
93 0 8 -1.05 6.655251999999999 0.22158200000000006 12.941581999999999 0 1 0
94 0 8 -1.05 2.3415820000000003 0.295252 13.015251999999998 0 0 0
95 0 8 -1.05 2.415252 6.655251999999999 15.135251999999998 0 0 0
96 0 8 -1.05 6.581580999999999 2.3415820000000003 10.821582 0 0 0
97 0 8 -1.05 0.22158200000000006 0.22158200000000006 10.895252 1 1 0
98 0 8 -1.05 0.295252 0.295252 15.061580999999999 0 0 0
99 0 8 -1.05 2.415252 4.461582 12.941581999999999 0 0 0
100 0 8 -1.05 6.581580999999999 4.535251999999999 13.015251999999998 0 0 0
101 0 8 -1.05 4.461582 6.655251999999999 17.181582 0 0 0
102 0 8 -1.05 4.535251999999999 2.3415820000000003 8.775251999999998 0 0 0
103 0 8 -1.05 6.655251999999999 2.415252 15.135251999999998 0 0 0
104 0 8 -1.05 2.3415820000000003 6.581580999999999 10.821582 0 0 0
105 0 8 -1.05 4.535251999999999 0.295252 10.821582 0 0 0
106 0 8 -1.05 4.461582 0.22158200000000006 15.135251999999998 0 1 0
107 0 8 -1.05 0.295252 2.3415820000000003 13.015251999999998 0 0 0
108 0 8 -1.05 0.22158200000000006 6.655251999999999 12.941581999999999 1 0 0
109 0 8 -1.05 2.3415820000000003 4.535251999999999 8.775251999999998 0 0 0
110 0 8 -1.05 6.655251999999999 4.461582 17.181582 0 0 0
111 0 8 -1.05 2.415252 2.415252 10.895252 0 0 0
112 0 8 -1.05 6.581580999999999 6.581580999999999 15.061580999999999 0 0 0
113 0 7 1.575 1.3184170000000002 1.3184170000000002 18.278417 0 0 0
114 0 6 1.05 7.678417 7.678417 24.638417000000004 0 0 0
115 0 6 1.05 5.5584169999999995 1.3184170000000002 22.518417 0 0 0
116 0 7 1.575 3.4384170000000003 7.678417 20.398417 0 0 0
117 0 6 1.05 1.3184170000000002 5.5584169999999995 22.518417 0 0 0
118 0 7 1.575 7.678417 3.4384170000000003 20.398417 0 0 0
119 0 7 1.575 5.5584169999999995 5.5584169999999995 18.278417 0 0 0
120 0 7 1.575 3.4384170000000003 3.4384170000000003 24.638417000000004 0 0 0
121 0 7 1.575 4.498416999999999 0.258417 17.218417000000002 0 0 0
122 0 7 1.575 2.3784170000000002 2.3784170000000002 21.458417 0 0 0
123 0 6 1.05 6.618416999999999 6.618416999999999 21.458417 0 0 0
124 0 7 1.575 6.618416999999999 4.498416999999999 23.578416999999998 0 0 0
125 0 7 1.575 2.3784170000000002 4.498416999999999 19.338417 0 0 0
126 0 6 1.05 0.258417 6.618416999999999 19.338417 0 0 0
127 0 7 1.575 0.258417 2.3784170000000002 23.578416999999998 0 0 0
128 0 7 1.575 0.258417 4.498416999999999 17.218417000000002 0 0 0
129 0 7 1.575 4.498416999999999 2.3784170000000002 19.338417 0 0 0
130 0 7 1.575 4.498416999999999 6.618416999999999 23.578416999999998 0 0 0
131 0 6 1.05 2.3784170000000002 0.258417 23.578416999999998 0 0 0
132 0 7 1.575 6.618416999999999 0.258417 19.338417 0 0 0
133 0 6 1.05 0.258417 0.258417 21.458417 0 0 0
134 0 7 1.575 6.618416999999999 2.3784170000000002 17.218417000000002 0 0 0
135 0 7 1.575 2.3784170000000002 6.618416999999999 17.218417000000002 0 0 0
136 0 7 1.575 4.498416999999999 4.498416999999999 21.458417 0 0 0
137 0 8 -1.05 2.415252 0.22158200000000006 25.661582 0 1 0
138 0 8 -1.05 6.581580999999999 0.295252 17.255252 0 0 0
139 0 8 -1.05 4.461582 2.415252 21.421581999999997 0 0 0
140 0 8 -1.05 4.535251999999999 6.581580999999999 21.495252 0 0 0
141 0 8 -1.05 0.22158200000000006 4.461582 23.615252 1 0 0
142 0 8 -1.05 0.295252 4.535251999999999 19.301582000000003 0 0 0
143 0 8 -1.05 6.655251999999999 6.655251999999999 19.375252000000003 0 0 0
144 0 8 -1.05 2.3415820000000003 2.3415820000000003 23.541580999999997 0 0 0
145 0 8 -1.05 0.22158200000000006 2.415252 25.661582 1 0 0
146 0 8 -1.05 0.295252 6.581580999999999 17.255252 0 0 0
147 0 8 -1.05 4.461582 4.461582 19.375252000000003 0 0 0
148 0 8 -1.05 4.535251999999999 4.535251999999999 23.541580999999997 0 0 0
149 0 8 -1.05 6.655251999999999 0.22158200000000006 21.421581999999997 0 1 0
150 0 8 -1.05 2.3415820000000003 0.295252 21.495252 0 0 0
151 0 8 -1.05 2.415252 6.655251999999999 23.615252 0 0 0
152 0 8 -1.05 6.581580999999999 2.3415820000000003 19.301582000000003 0 0 0
153 0 8 -1.05 0.22158200000000006 0.22158200000000006 19.375252000000003 1 1 0
154 0 8 -1.05 0.295252 0.295252 23.541580999999997 0 0 0
155 0 8 -1.05 2.415252 4.461582 21.421581999999997 0 0 0
156 0 8 -1.05 6.581580999999999 4.535251999999999 21.495252 0 0 0
157 0 8 -1.05 4.461582 6.655251999999999 25.661582 0 0 0
158 0 8 -1.05 4.535251999999999 2.3415820000000003 17.255252 0 0 0
159 0 8 -1.05 6.655251999999999 2.415252 23.615252 0 0 0
160 0 8 -1.05 2.3415820000000003 6.581580999999999 19.301582000000003 0 0 0
161 0 8 -1.05 4.535251999999999 0.295252 19.301582000000003 0 0 0
162 0 8 -1.05 4.461582 0.22158200000000006 23.615252 0 1 0
163 0 8 -1.05 0.295252 2.3415820000000003 21.495252 0 0 0
164 0 8 -1.05 0.22158200000000006 6.655251999999999 21.421581999999997 1 0 0
165 0 8 -1.05 2.3415820000000003 4.535251999999999 17.255252 0 0 0
166 0 8 -1.05 6.655251999999999 4.461582 25.661582 0 0 0
167 0 8 -1.05 2.415252 2.415252 19.375252000000003 0 0 0
168 0 8 -1.05 6.581580999999999 6.581580999999999 23.541580999999997 0 0 0
169 0 6 1.05 1.3184170000000002 1.3184170000000002 26.758417 0 0 0
170 0 7 1.575 7.678417 7.678417 33.118416999999994 0 0 0
171 0 6 1.05 5.5584169999999995 1.3184170000000002 30.998417 0 0 0
172 0 7 1.575 3.4384170000000003 7.678417 28.878417 0 0 0
173 0 7 1.575 1.3184170000000002 5.5584169999999995 30.998417 0 0 0
174 0 7 1.575 7.678417 3.4384170000000003 28.878417 0 0 0
175 0 6 1.05 5.5584169999999995 5.5584169999999995 26.758417 0 0 0
176 0 7 1.575 3.4384170000000003 3.4384170000000003 33.118416999999994 0 0 0
177 0 7 1.575 4.498416999999999 0.258417 25.698417 0 0 0
178 0 7 1.575 2.3784170000000002 2.3784170000000002 29.938416999999998 0 0 0
179 0 7 1.575 6.618416999999999 6.618416999999999 29.938416999999998 0 0 0
180 0 6 1.05 6.618416999999999 4.498416999999999 32.058417 0 0 0
181 0 7 1.575 2.3784170000000002 4.498416999999999 27.818417 0 0 0
182 0 7 1.575 0.258417 6.618416999999999 27.818417 0 0 0
183 0 7 1.575 0.258417 2.3784170000000002 32.058417 0 0 0
184 0 7 1.575 0.258417 4.498416999999999 25.698417 0 0 0
185 0 7 1.575 4.498416999999999 2.3784170000000002 27.818417 0 0 0
186 0 6 1.05 4.498416999999999 6.618416999999999 32.058417 0 0 0
187 0 7 1.575 2.3784170000000002 0.258417 32.058417 0 0 0
188 0 7 1.575 6.618416999999999 0.258417 27.818417 0 0 0
189 0 7 1.575 0.258417 0.258417 29.938416999999998 0 0 0
190 0 7 1.575 6.618416999999999 2.3784170000000002 25.698417 0 0 0
191 0 6 1.05 2.3784170000000002 6.618416999999999 25.698417 0 0 0
192 0 6 1.05 4.498416999999999 4.498416999999999 29.938416999999998 0 0 0
193 0 8 -1.05 2.415252 0.22158200000000006 34.141582 0 1 0
194 0 8 -1.05 6.581580999999999 0.295252 25.735252 0 0 0
195 0 8 -1.05 4.461582 2.415252 29.901581999999998 0 0 0
196 0 8 -1.05 4.535251999999999 6.581580999999999 29.975252 0 0 0
197 0 8 -1.05 0.22158200000000006 4.461582 32.095252 1 0 0
198 0 8 -1.05 0.295252 4.535251999999999 27.781582000000004 0 0 0
199 0 8 -1.05 6.655251999999999 6.655251999999999 27.855252 0 0 0
200 0 8 -1.05 2.3415820000000003 2.3415820000000003 32.021581 0 0 0
201 0 8 -1.05 0.22158200000000006 2.415252 34.141582 1 0 0
202 0 8 -1.05 0.295252 6.581580999999999 25.735252 0 0 0
203 0 8 -1.05 4.461582 4.461582 27.855252 0 0 0
204 0 8 -1.05 4.535251999999999 4.535251999999999 32.021581 0 0 0
205 0 8 -1.05 6.655251999999999 0.22158200000000006 29.901581999999998 0 1 0
206 0 8 -1.05 2.3415820000000003 0.295252 29.975252 0 0 0
207 0 8 -1.05 2.415252 6.655251999999999 32.095252 0 0 0
208 0 8 -1.05 6.581580999999999 2.3415820000000003 27.781582000000004 0 0 0
209 0 8 -1.05 0.22158200000000006 0.22158200000000006 27.855252 1 1 0
210 0 8 -1.05 0.295252 0.295252 32.021581 0 0 0
211 0 8 -1.05 2.415252 4.461582 29.901581999999998 0 0 0
212 0 8 -1.05 6.581580999999999 4.535251999999999 29.975252 0 0 0
213 0 8 -1.05 4.461582 6.655251999999999 34.141582 0 0 0
214 0 8 -1.05 4.535251999999999 2.3415820000000003 25.735252 0 0 0
215 0 8 -1.05 6.655251999999999 2.415252 32.095252 0 0 0
216 0 8 -1.05 2.3415820000000003 6.581580999999999 27.781582000000004 0 0 0
217 0 8 -1.05 4.535251999999999 0.295252 27.781582000000004 0 0 0
218 0 8 -1.05 4.461582 0.22158200000000006 32.095252 0 1 0
219 0 8 -1.05 0.295252 2.3415820000000003 29.975252 0 0 0
220 0 8 -1.05 0.22158200000000006 6.655251999999999 29.901581999999998 1 0 0
221 0 8 -1.05 2.3415820000000003 4.535251999999999 25.735252 0 0 0
222 0 8 -1.05 6.655251999999999 4.461582 34.141582 0 0 0
223 0 8 -1.05 2.415252 2.415252 27.855252 0 0 0
224 0 8 -1.05 6.581580999999999 6.581580999999999 32.021581 0 0 0
225 0 6 1.05 1.3184170000000002 1.3184170000000002 35.238417000000005 0 0 0
226 0 6 1.05 7.678417 7.678417 41.598417 0 0 0
227 0 6 1.05 5.5584169999999995 1.3184170000000002 39.478417 0 0 0
228 0 7 1.575 3.4384170000000003 7.678417 37.358417 0 0 0
229 0 7 1.575 1.3184170000000002 5.5584169999999995 39.478417 0 0 0
230 0 6 1.05 7.678417 3.4384170000000003 37.358417 0 0 0
231 0 6 1.05 5.5584169999999995 5.5584169999999995 35.238417000000005 0 0 0
232 0 7 1.575 3.4384170000000003 3.4384170000000003 41.598417 0 0 0
233 0 7 1.575 4.498416999999999 0.258417 34.178417 0 0 0
234 0 7 1.575 2.3784170000000002 2.3784170000000002 38.418417 0 0 0
235 0 6 1.05 6.618416999999999 6.618416999999999 38.418417 0 0 0
236 0 6 1.05 6.618416999999999 4.498416999999999 40.538416999999995 0 0 0
237 0 7 1.575 2.3784170000000002 4.498416999999999 36.298417 0 0 0
238 0 6 1.05 0.258417 6.618416999999999 36.298417 0 0 0
239 0 6 1.05 0.258417 2.3784170000000002 40.538416999999995 0 0 0
240 0 7 1.575 0.258417 4.498416999999999 34.178417 0 0 0
241 0 7 1.575 4.498416999999999 2.3784170000000002 36.298417 0 0 0
242 0 7 1.575 4.498416999999999 6.618416999999999 40.538416999999995 0 0 0
243 0 7 1.575 2.3784170000000002 0.258417 40.538416999999995 0 0 0
244 0 7 1.575 6.618416999999999 0.258417 36.298417 0 0 0
245 0 7 1.575 0.258417 0.258417 38.418417 0 0 0
246 0 7 1.575 6.618416999999999 2.3784170000000002 34.178417 0 0 0
247 0 6 1.05 2.3784170000000002 6.618416999999999 34.178417 0 0 0
248 0 7 1.575 4.498416999999999 4.498416999999999 38.418417 0 0 0
249 0 8 -1.05 2.415252 0.22158200000000006 42.621582 0 1 0
250 0 8 -1.05 6.581580999999999 0.295252 34.215252 0 0 0
251 0 8 -1.05 4.461582 2.415252 38.381581999999995 0 0 0
252 0 8 -1.05 4.535251999999999 6.581580999999999 38.455252 0 0 0
253 0 8 -1.05 0.22158200000000006 4.461582 40.575252 1 0 0
254 0 8 -1.05 0.295252 4.535251999999999 36.261582 0 0 0
255 0 8 -1.05 6.655251999999999 6.655251999999999 36.335252000000004 0 0 0
256 0 8 -1.05 2.3415820000000003 2.3415820000000003 40.501580999999995 0 0 0
257 0 8 -1.05 0.22158200000000006 2.415252 42.621582 1 0 0
258 0 8 -1.05 0.295252 6.581580999999999 34.215252 0 0 0
259 0 8 -1.05 4.461582 4.461582 36.335252000000004 0 0 0
260 0 8 -1.05 4.535251999999999 4.535251999999999 40.501580999999995 0 0 0
261 0 8 -1.05 6.655251999999999 0.22158200000000006 38.381581999999995 0 1 0
262 0 8 -1.05 2.3415820000000003 0.295252 38.455252 0 0 0
263 0 8 -1.05 2.415252 6.655251999999999 40.575252 0 0 0
264 0 8 -1.05 6.581580999999999 2.3415820000000003 36.261582 0 0 0
265 0 8 -1.05 0.22158200000000006 0.22158200000000006 36.335252000000004 1 1 0
266 0 8 -1.05 0.295252 0.295252 40.501580999999995 0 0 0
267 0 8 -1.05 2.415252 4.461582 38.381581999999995 0 0 0
268 0 8 -1.05 6.581580999999999 4.535251999999999 38.455252 0 0 0
269 0 8 -1.05 4.461582 6.655251999999999 42.621582 0 0 0
270 0 8 -1.05 4.535251999999999 2.3415820000000003 34.215252 0 0 0
271 0 8 -1.05 6.655251999999999 2.415252 40.575252 0 0 0
272 0 8 -1.05 2.3415820000000003 6.581580999999999 36.261582 0 0 0
273 0 8 -1.05 4.535251999999999 0.295252 36.261582 0 0 0
274 0 8 -1.05 4.461582 0.22158200000000006 40.575252 0 1 0
275 0 8 -1.05 0.295252 2.3415820000000003 38.455252 0 0 0
276 0 8 -1.05 0.22158200000000006 6.655251999999999 38.381581999999995 1 0 0
277 0 8 -1.05 2.3415820000000003 4.535251999999999 34.215252 0 0 0
278 0 8 -1.05 6.655251999999999 4.461582 42.621582 0 0 0
279 0 8 -1.05 2.415252 2.415252 36.335252000000004 0 0 0
280 0 8 -1.05 6.581580999999999 6.581580999999999 40.501580999999995 0 0 0
281 0 7 1.575 1.3184170000000002 1.3184170000000002 43.718417 0 0 0
282 0 7 1.575 7.678417 7.678417 50.07841700000001 0 0 0
283 0 6 1.05 5.5584169999999995 1.3184170000000002 47.958417 0 0 0
284 0 7 1.575 3.4384170000000003 7.678417 45.838417 0 0 0
285 0 7 1.575 1.3184170000000002 5.5584169999999995 47.958417 0 0 0
286 0 6 1.05 7.678417 3.4384170000000003 45.838417 0 0 0
287 0 7 1.575 5.5584169999999995 5.5584169999999995 43.718417 0 0 0
288 0 7 1.575 3.4384170000000003 3.4384170000000003 50.07841700000001 0 0 0
289 0 7 1.575 4.498416999999999 0.258417 42.65841700000001 0 0 0
290 0 6 1.05 2.3784170000000002 2.3784170000000002 46.89841700000001 0 0 0
291 0 6 1.05 6.618416999999999 6.618416999999999 46.89841700000001 0 0 0
292 0 7 1.575 6.618416999999999 4.498416999999999 49.018417 0 0 0
293 0 7 1.575 2.3784170000000002 4.498416999999999 44.778417 0 0 0
294 0 6 1.05 0.258417 6.618416999999999 44.778417 0 0 0
295 0 6 1.05 0.258417 2.3784170000000002 49.018417 0 0 0
296 0 7 1.575 0.258417 4.498416999999999 42.65841700000001 0 0 0
297 0 6 1.05 4.498416999999999 2.3784170000000002 44.778417 0 0 0
298 0 7 1.575 4.498416999999999 6.618416999999999 49.018417 0 0 0
299 0 7 1.575 2.3784170000000002 0.258417 49.018417 0 0 0
300 0 7 1.575 6.618416999999999 0.258417 44.778417 0 0 0
301 0 6 1.05 0.258417 0.258417 46.89841700000001 0 0 0
302 0 7 1.575 6.618416999999999 2.3784170000000002 42.65841700000001 0 0 0
303 0 7 1.575 2.3784170000000002 6.618416999999999 42.65841700000001 0 0 0
304 0 6 1.05 4.498416999999999 4.498416999999999 46.89841700000001 0 0 0
305 0 8 -1.05 2.415252 0.22158200000000006 51.101582 0 1 0
306 0 8 -1.05 6.581580999999999 0.295252 42.695252 0 0 0
307 0 8 -1.05 4.461582 2.415252 46.861582 0 0 0
308 0 8 -1.05 4.535251999999999 6.581580999999999 46.935252 0 0 0
309 0 8 -1.05 0.22158200000000006 4.461582 49.05525200000001 1 0 0
310 0 8 -1.05 0.295252 4.535251999999999 44.74158200000001 0 0 0
311 0 8 -1.05 6.655251999999999 6.655251999999999 44.81525200000001 0 0 0
312 0 8 -1.05 2.3415820000000003 2.3415820000000003 48.981581000000006 0 0 0
313 0 8 -1.05 0.22158200000000006 2.415252 51.101582 1 0 0
314 0 8 -1.05 0.295252 6.581580999999999 42.695252 0 0 0
315 0 8 -1.05 4.461582 4.461582 44.81525200000001 0 0 0
316 0 8 -1.05 4.535251999999999 4.535251999999999 48.981581000000006 0 0 0
317 0 8 -1.05 6.655251999999999 0.22158200000000006 46.861582 0 1 0
318 0 8 -1.05 2.3415820000000003 0.295252 46.935252 0 0 0
319 0 8 -1.05 2.415252 6.655251999999999 49.05525200000001 0 0 0
320 0 8 -1.05 6.581580999999999 2.3415820000000003 44.74158200000001 0 0 0
321 0 8 -1.05 0.22158200000000006 0.22158200000000006 44.81525200000001 1 1 0
322 0 8 -1.05 0.295252 0.295252 48.981581000000006 0 0 0
323 0 8 -1.05 2.415252 4.461582 46.861582 0 0 0
324 0 8 -1.05 6.581580999999999 4.535251999999999 46.935252 0 0 0
325 0 8 -1.05 4.461582 6.655251999999999 51.101582 0 0 0
326 0 8 -1.05 4.535251999999999 2.3415820000000003 42.695252 0 0 0
327 0 8 -1.05 6.655251999999999 2.415252 49.05525200000001 0 0 0
328 0 8 -1.05 2.3415820000000003 6.581580999999999 44.74158200000001 0 0 0
329 0 8 -1.05 4.535251999999999 0.295252 44.74158200000001 0 0 0
330 0 8 -1.05 4.461582 0.22158200000000006 49.05525200000001 0 1 0
331 0 8 -1.05 0.295252 2.3415820000000003 46.935252 0 0 0
332 0 8 -1.05 0.22158200000000006 6.655251999999999 46.861582 1 0 0
333 0 8 -1.05 2.3415820000000003 4.535251999999999 42.695252 0 0 0
334 0 8 -1.05 6.655251999999999 4.461582 51.101582 0 0 0
335 0 8 -1.05 2.415252 2.415252 44.81525200000001 0 0 0
336 0 8 -1.05 6.581580999999999 6.581580999999999 48.981581000000006 0 0 0
337 0 7 1.575 1.3184170000000002 1.3184170000000002 52.198417 0 0 0
338 0 7 1.575 7.678417 7.678417 58.558417000000006 0 0 0
339 0 7 1.575 5.5584169999999995 1.3184170000000002 56.438416999999994 0 0 0
340 0 7 1.575 3.4384170000000003 7.678417 54.318417 0 0 0
341 0 7 1.575 1.3184170000000002 5.5584169999999995 56.438416999999994 0 0 0
342 0 6 1.05 7.678417 3.4384170000000003 54.318417 0 0 0
343 0 7 1.575 5.5584169999999995 5.5584169999999995 52.198417 0 0 0
344 0 7 1.575 3.4384170000000003 3.4384170000000003 58.558417000000006 0 0 0
345 0 7 1.575 4.498416999999999 0.258417 51.138417000000004 0 0 0
346 0 7 1.575 2.3784170000000002 2.3784170000000002 55.378417 0 0 0
347 0 7 1.575 6.618416999999999 6.618416999999999 55.378417 0 0 0
348 0 7 1.575 6.618416999999999 4.498416999999999 57.498416999999996 0 0 0
349 0 7 1.575 2.3784170000000002 4.498416999999999 53.258416999999994 0 0 0
350 0 6 1.05 0.258417 6.618416999999999 53.258416999999994 0 0 0
351 0 7 1.575 0.258417 2.3784170000000002 57.498416999999996 0 0 0
352 0 6 1.05 0.258417 4.498416999999999 51.138417000000004 0 0 0
353 0 7 1.575 4.498416999999999 2.3784170000000002 53.258416999999994 0 0 0
354 0 7 1.575 4.498416999999999 6.618416999999999 57.498416999999996 0 0 0
355 0 7 1.575 2.3784170000000002 0.258417 57.498416999999996 0 0 0
356 0 7 1.575 6.618416999999999 0.258417 53.258416999999994 0 0 0
357 0 6 1.05 0.258417 0.258417 55.378417 0 0 0
358 0 7 1.575 6.618416999999999 2.3784170000000002 51.138417000000004 0 0 0
359 0 7 1.575 2.3784170000000002 6.618416999999999 51.138417000000004 0 0 0
360 0 7 1.575 4.498416999999999 4.498416999999999 55.378417 0 0 0
361 0 8 -1.05 2.415252 0.22158200000000006 59.581582000000004 0 1 0
362 0 8 -1.05 6.581580999999999 0.295252 51.175252 0 0 0
363 0 8 -1.05 4.461582 2.415252 55.341581999999995 0 0 0
364 0 8 -1.05 4.535251999999999 6.581580999999999 55.415251999999995 0 0 0
365 0 8 -1.05 0.22158200000000006 4.461582 57.535252 1 0 0
366 0 8 -1.05 0.295252 4.535251999999999 53.221582 0 0 0
367 0 8 -1.05 6.655251999999999 6.655251999999999 53.295252000000005 0 0 0
368 0 8 -1.05 2.3415820000000003 2.3415820000000003 57.461580999999995 0 0 0
369 0 8 -1.05 0.22158200000000006 2.415252 59.581582000000004 1 0 0
370 0 8 -1.05 0.295252 6.581580999999999 51.175252 0 0 0
371 0 8 -1.05 4.461582 4.461582 53.295252000000005 0 0 0
372 0 8 -1.05 4.535251999999999 4.535251999999999 57.461580999999995 0 0 0
373 0 8 -1.05 6.655251999999999 0.22158200000000006 55.341581999999995 0 1 0
374 0 8 -1.05 2.3415820000000003 0.295252 55.415251999999995 0 0 0
375 0 8 -1.05 2.415252 6.655251999999999 57.535252 0 0 0
376 0 8 -1.05 6.581580999999999 2.3415820000000003 53.221582 0 0 0
377 0 8 -1.05 0.22158200000000006 0.22158200000000006 53.295252000000005 1 1 0
378 0 8 -1.05 0.295252 0.295252 57.461580999999995 0 0 0
379 0 8 -1.05 2.415252 4.461582 55.341581999999995 0 0 0
380 0 8 -1.05 6.581580999999999 4.535251999999999 55.415251999999995 0 0 0
381 0 8 -1.05 4.461582 6.655251999999999 59.581582000000004 0 0 0
382 0 8 -1.05 4.535251999999999 2.3415820000000003 51.175252 0 0 0
383 0 8 -1.05 6.655251999999999 2.415252 57.535252 0 0 0
384 0 8 -1.05 2.3415820000000003 6.581580999999999 53.221582 0 0 0
385 0 8 -1.05 4.535251999999999 0.295252 53.221582 0 0 0
386 0 8 -1.05 4.461582 0.22158200000000006 57.535252 0 1 0
387 0 8 -1.05 0.295252 2.3415820000000003 55.415251999999995 0 0 0
388 0 8 -1.05 0.22158200000000006 6.655251999999999 55.341581999999995 1 0 0
389 0 8 -1.05 2.3415820000000003 4.535251999999999 51.175252 0 0 0
390 0 8 -1.05 6.655251999999999 4.461582 59.581582000000004 0 0 0
391 0 8 -1.05 2.415252 2.415252 53.295252000000005 0 0 0
392 0 8 -1.05 6.581580999999999 6.581580999999999 57.461580999999995 0 0 0
393 0 7 1.575 1.3184170000000002 1.3184170000000002 60.678416999999996 0 0 0
394 0 6 1.05 7.678417 7.678417 67.038417 0 0 0
395 0 6 1.05 5.5584169999999995 1.3184170000000002 64.91841699999998 0 0 0
396 0 7 1.575 3.4384170000000003 7.678417 62.798417 0 0 0
397 0 6 1.05 1.3184170000000002 5.5584169999999995 64.91841699999998 0 0 0
398 0 6 1.05 7.678417 3.4384170000000003 62.798417 0 0 0
399 0 7 1.575 5.5584169999999995 5.5584169999999995 60.678416999999996 0 0 0
400 0 7 1.575 3.4384170000000003 3.4384170000000003 67.038417 0 0 0
401 0 7 1.575 4.498416999999999 0.258417 59.618416999999994 0 0 0
402 0 7 1.575 2.3784170000000002 2.3784170000000002 63.858416999999996 0 0 0
403 0 7 1.575 6.618416999999999 6.618416999999999 63.858416999999996 0 0 0
404 0 7 1.575 6.618416999999999 4.498416999999999 65.978417 0 0 0
405 0 7 1.575 2.3784170000000002 4.498416999999999 61.73841699999999 0 0 0
406 0 7 1.575 0.258417 6.618416999999999 61.73841699999999 0 0 0
407 0 7 1.575 0.258417 2.3784170000000002 65.978417 0 0 0
408 0 7 1.575 0.258417 4.498416999999999 59.618416999999994 0 0 0
409 0 7 1.575 4.498416999999999 2.3784170000000002 61.73841699999999 0 0 0
410 0 7 1.575 4.498416999999999 6.618416999999999 65.978417 0 0 0
411 0 7 1.575 2.3784170000000002 0.258417 65.978417 0 0 0
412 0 7 1.575 6.618416999999999 0.258417 61.73841699999999 0 0 0
413 0 7 1.575 0.258417 0.258417 63.858416999999996 0 0 0
414 0 7 1.575 6.618416999999999 2.3784170000000002 59.618416999999994 0 0 0
415 0 6 1.05 2.3784170000000002 6.618416999999999 59.618416999999994 0 0 0
416 0 6 1.05 4.498416999999999 4.498416999999999 63.858416999999996 0 0 0
417 0 8 -1.05 2.415252 0.22158200000000006 68.06158199999999 0 1 0
418 0 8 -1.05 6.581580999999999 0.295252 59.655252 0 0 0
419 0 8 -1.05 4.461582 2.415252 63.82158199999999 0 0 0
420 0 8 -1.05 4.535251999999999 6.581580999999999 63.89525199999999 0 0 0
421 0 8 -1.05 0.22158200000000006 4.461582 66.01525199999999 1 0 0
422 0 8 -1.05 0.295252 4.535251999999999 61.701581999999995 0 0 0
423 0 8 -1.05 6.655251999999999 6.655251999999999 61.775251999999995 0 0 0
424 0 8 -1.05 2.3415820000000003 2.3415820000000003 65.94158099999999 0 0 0
425 0 8 -1.05 0.22158200000000006 2.415252 68.06158199999999 1 0 0
426 0 8 -1.05 0.295252 6.581580999999999 59.655252 0 0 0
427 0 8 -1.05 4.461582 4.461582 61.775251999999995 0 0 0
428 0 8 -1.05 4.535251999999999 4.535251999999999 65.94158099999999 0 0 0
429 0 8 -1.05 6.655251999999999 0.22158200000000006 63.82158199999999 0 1 0
430 0 8 -1.05 2.3415820000000003 0.295252 63.89525199999999 0 0 0
431 0 8 -1.05 2.415252 6.655251999999999 66.01525199999999 0 0 0
432 0 8 -1.05 6.581580999999999 2.3415820000000003 61.701581999999995 0 0 0
433 0 8 -1.05 0.22158200000000006 0.22158200000000006 61.775251999999995 1 1 0
434 0 8 -1.05 0.295252 0.295252 65.94158099999999 0 0 0
435 0 8 -1.05 2.415252 4.461582 63.82158199999999 0 0 0
436 0 8 -1.05 6.581580999999999 4.535251999999999 63.89525199999999 0 0 0
437 0 8 -1.05 4.461582 6.655251999999999 68.06158199999999 0 0 0
438 0 8 -1.05 4.535251999999999 2.3415820000000003 59.655252 0 0 0
439 0 8 -1.05 6.655251999999999 2.415252 66.01525199999999 0 0 0
440 0 8 -1.05 2.3415820000000003 6.581580999999999 61.701581999999995 0 0 0
441 0 8 -1.05 4.535251999999999 0.295252 61.701581999999995 0 0 0
442 0 8 -1.05 4.461582 0.22158200000000006 66.01525199999999 0 1 0
443 0 8 -1.05 0.295252 2.3415820000000003 63.89525199999999 0 0 0
444 0 8 -1.05 0.22158200000000006 6.655251999999999 63.82158199999999 1 0 0
445 0 8 -1.05 2.3415820000000003 4.535251999999999 59.655252 0 0 0
446 0 8 -1.05 6.655251999999999 4.461582 68.06158199999999 0 0 0
447 0 8 -1.05 2.415252 2.415252 61.775251999999995 0 0 0
448 0 8 -1.05 6.581580999999999 6.581580999999999 65.94158099999999 0 0 0
449 0 6 1.05 1.3184170000000002 1.3184170000000002 69.158417 0 0 0
450 0 7 1.575 7.678417 7.678417 75.51841699999999 0 0 0
451 0 6 1.05 5.5584169999999995 1.3184170000000002 73.398417 0 0 0
452 0 7 1.575 3.4384170000000003 7.678417 71.27841699999999 0 0 0