LAMMPS data file via write_data, version 17 Feb 2022, timestep = 0

446 atoms
8 atom types
0 bonds
4 bond types
0 angles
4 angle types
0 dihedrals
2 dihedral types
0 impropers
1 improper types

0 8.48 xlo xhi
0 8.48 ylo yhi
-33.920004 25.439996 zlo zhi

Masses

1 12.011
2 1.008
3 15.9994
4 15.9994
5 1.008
6 55.845
7 55.845
8 15.9994

Pair Coeffs # lj/cut/coul/cut

1 0.0988 3.31521
2 0.0161 2.4473
3 0.1463 3.04812
4 0.093 3.24287
5 0.0047 0.537925
6 9.0298e-07 4.9062
7 9.0298e-07 4.9062
8 0.1554 3.16554

Atoms # full

1 0 7 1.575 0.258417 4.498416999999998 19.684887900000007 0 0 0
2 0 6 1.05 6.618416999999998 2.3784170000000002 19.684887900000007 0 0 0
3 0 7 1.575 2.3784170000000002 6.618416999999998 19.684887900000007 0 0 0
4 0 6 1.05 4.498416999999998 0.258417 19.684887900000007 0 0 0
5 0 8 -1.05 6.581580999999999 0.295252 19.710672400000007 0 0 0
6 0 8 -1.05 0.295252 6.581580999999999 19.710672400000007 0 0 0
7 0 8 -1.05 4.535251999999998 2.3415820000000003 19.710672400000007 0 0 0
8 0 8 -1.05 2.3415820000000003 4.535251999999998 19.710672400000007 0 0 0
9 0 8 -1.05 6.581580999999999 6.581580999999999 18.17510270000001 0 0 0
10 0 8 -1.05 2.415252 2.415252 15.258672399999995 0 0 0
11 0 8 -1.05 6.655251999999998 4.461582 19.6591034 0 0 0
12 0 8 -1.05 2.3415820000000003 4.535251999999998 13.7746724 0 0 0
13 0 8 -1.05 0.22158200000000006 6.655251999999998 16.69110339999999 1 0 0
14 0 8 -1.05 0.295252 2.3415820000000003 16.742672399999996 0 0 0
15 0 8 -1.05 4.461582 0.22158200000000006 18.22667239999999 0 1 0
16 0 8 -1.05 4.535251999999998 0.295252 15.207103399999987 0 0 0
17 0 8 -1.05 2.3415820000000003 6.581580999999999 15.207103399999987 0 0 0
18 0 8 -1.05 6.655251999999998 2.415252 18.22667239999999 0 0 0
19 0 8 -1.05 4.535251999999998 2.3415820000000003 13.7746724 0 0 0
20 0 8 -1.05 4.461582 6.655251999999998 19.6591034 0 0 0
21 0 8 -1.05 6.581580999999999 4.535251999999998 16.742672399999996 0 0 0
22 0 8 -1.05 2.415252 4.461582 16.69110339999999 0 0 0
23 0 8 -1.05 0.295252 0.295252 18.17510270000001 0 0 0
24 0 8 -1.05 0.22158200000000006 0.22158200000000006 15.258672399999995 1 1 0
25 0 8 -1.05 6.581580999999999 2.3415820000000003 15.207103399999987 0 0 0
26 0 8 -1.05 2.415252 6.655251999999998 18.22667239999999 0 0 0
27 0 8 -1.05 2.3415820000000003 0.295252 16.742672399999996 0 0 0
28 0 8 -1.05 6.655251999999998 0.22158200000000006 16.69110339999999 0 1 0
29 0 8 -1.05 4.535251999999998 4.535251999999998 18.17510270000001 0 0 0
30 0 8 -1.05 4.461582 4.461582 15.258672399999995 0 0 0
31 0 8 -1.05 0.295252 6.581580999999999 13.7746724 0 0 0
32 0 8 -1.05 0.22158200000000006 2.415252 19.6591034 1 0 0
33 0 8 -1.05 2.3415820000000003 2.3415820000000003 18.17510270000001 0 0 0
34 0 8 -1.05 6.655251999999998 6.655251999999998 15.258672399999995 0 0 0
35 0 8 -1.05 0.295252 4.535251999999998 15.207103399999987 0 0 0
36 0 8 -1.05 0.22158200000000006 4.461582 18.22667239999999 1 0 0
37 0 8 -1.05 4.535251999999998 6.581580999999999 16.742672399999996 0 0 0
38 0 8 -1.05 4.461582 2.415252 16.69110339999999 0 0 0
39 0 8 -1.05 6.581580999999999 0.295252 13.7746724 0 0 0
40 0 8 -1.05 2.415252 0.22158200000000006 19.6591034 0 1 0
41 0 7 1.575 4.498416999999998 4.498416999999998 16.71688789999999 0 0 0
42 0 7 1.575 2.3784170000000002 6.618416999999998 13.748887899999993 0 0 0
43 0 7 1.575 6.618416999999998 2.3784170000000002 13.748887899999993 0 0 0
44 0 7 1.575 0.258417 0.258417 16.71688789999999 0 0 0
45 0 6 1.05 6.618416999999998 0.258417 15.232887899999994 0 0 0
46 0 7 1.575 2.3784170000000002 0.258417 18.200887900000005 0 0 0
47 0 7 1.575 4.498416999999998 6.618416999999998 18.200887900000005 0 0 0
48 0 6 1.05 4.498416999999998 2.3784170000000002 15.232887899999994 0 0 0
49 0 7 1.575 0.258417 4.498416999999998 13.748887899999993 0 0 0
50 0 7 1.575 0.258417 2.3784170000000002 18.200887900000005 0 0 0
51 0 7 1.575 0.258417 6.618416999999998 15.232887899999994 0 0 0
52 0 7 1.575 2.3784170000000002 4.498416999999998 15.232887899999994 0 0 0
53 0 7 1.575 6.618416999999998 4.498416999999998 18.200887900000005 0 0 0
54 0 7 1.575 6.618416999999998 6.618416999999998 16.71688789999999 0 0 0
55 0 7 1.575 2.3784170000000002 2.3784170000000002 16.71688789999999 0 0 0
56 0 7 1.575 4.498416999999998 0.258417 13.748887899999993 0 0 0
57 0 7 1.575 3.4384170000000003 3.4384170000000003 18.942887899999995 0 0 0
58 0 7 1.575 7.678417 7.678417 -22.609112099999997 0 0 0
59 0 7 1.575 5.5584169999999995 1.3184170000000002 -24.0931121 0 0 0
60 0 6 1.05 3.4384170000000003 7.678417 -25.5771121 0 0 0
61 0 6 1.05 1.3184170000000002 5.5584169999999995 -24.0931121 0 0 0
62 0 7 1.575 7.678417 3.4384170000000003 -25.5771121 0 0 0
63 0 7 1.575 5.5584169999999995 5.5584169999999995 14.490887900000004 0 0 0
64 0 7 1.575 3.4384170000000003 3.4384170000000003 -22.609112099999997 0 0 0
65 0 7 1.575 7.678417 3.4384170000000003 15.974887899999999 0 0 0
66 0 7 1.575 2.3784170000000002 2.3784170000000002 -24.835112099999996 0 0 0
67 0 6 1.05 6.618416999999998 6.618416999999998 -24.835112099999996 0 0 0
68 0 6 1.05 6.618416999999998 4.498416999999998 -23.3511121 0 0 0
69 0 7 1.575 2.3784170000000002 4.498416999999998 -26.319112099999998 0 0 0
70 0 7 1.575 0.258417 6.618416999999998 -26.319112099999998 0 0 0
71 0 6 1.05 0.258417 2.3784170000000002 -23.3511121 0 0 0
72 0 7 1.575 1.3184170000000002 5.5584169999999995 17.4588879 0 0 0
73 0 6 1.05 4.498416999999998 2.3784170000000002 -26.319112099999998 0 0 0
74 0 7 1.575 4.498416999999998 6.618416999999998 -23.3511121 0 0 0
75 0 7 1.575 2.3784170000000002 0.258417 -23.3511121 0 0 0
76 0 7 1.575 6.618416999999998 0.258417 -26.319112099999998 0 0 0
77 0 7 1.575 0.258417 0.258417 -24.835112099999996 0 0 0
78 0 7 1.575 3.4384170000000003 7.678417 15.974887899999999 0 0 0
79 0 7 1.575 5.5584169999999995 1.3184170000000002 17.4588879 0 0 0
80 0 7 1.575 4.498416999999998 4.498416999999998 -24.835112099999996 0 0 0
81 0 8 -1.05 2.415252 0.22158200000000006 -21.8928966 0 1 0
82 0 7 1.575 7.678417 7.678417 18.942887899999995 0 0 0
83 0 8 -1.05 4.461582 2.415252 -24.860896599999997 0 0 0
84 0 8 -1.05 4.535251999999998 6.581580999999999 -24.8093276 0 0 0
85 0 8 -1.05 0.22158200000000006 4.461582 -23.3253276 1 0 0
86 0 8 -1.05 0.295252 4.535251999999998 -26.3448966 0 0 0
87 0 8 -1.05 6.655251999999998 6.655251999999998 -26.293327599999998 0 0 0
88 0 8 -1.05 2.3415820000000003 2.3415820000000003 -23.3768973 0 0 0
89 0 8 -1.05 0.22158200000000006 2.415252 -21.8928966 1 0 0
90 0 7 1.575 1.3184170000000002 1.3184170000000002 14.490887900000004 0 0 0
91 0 8 -1.05 4.461582 4.461582 -26.293327599999998 0 0 0
92 0 8 -1.05 4.535251999999998 4.535251999999998 -23.3768973 0 0 0
93 0 8 -1.05 6.655251999999998 0.22158200000000006 -24.860896599999997 0 1 0
94 0 8 -1.05 2.3415820000000003 0.295252 -24.8093276 0 0 0
95 0 8 -1.05 2.415252 6.655251999999998 -23.3253276 0 0 0
96 0 8 -1.05 6.581580999999999 2.3415820000000003 -26.3448966 0 0 0
97 0 8 -1.05 0.22158200000000006 0.22158200000000006 -26.293327599999998 1 1 0
98 0 8 -1.05 0.295252 0.295252 -23.3768973 0 0 0
99 0 8 -1.05 2.415252 4.461582 -24.860896599999997 0 0 0
100 0 8 -1.05 6.581580999999999 4.535251999999998 -24.8093276 0 0 0
101 0 8 -1.05 4.461582 6.655251999999998 -21.8928966 0 0 0
102 0 8 -1.05 6.581580999999999 6.581580999999999 12.239102699999997 0 0 0
103 0 8 -1.05 6.655251999999998 2.415252 -23.3253276 0 0 0
104 0 8 -1.05 2.3415820000000003 6.581580999999999 -26.3448966 0 0 0
105 0 8 -1.05 4.535251999999998 0.295252 -26.3448966 0 0 0
106 0 8 -1.05 4.461582 0.22158200000000006 -23.3253276 0 1 0
107 0 8 -1.05 0.295252 2.3415820000000003 -24.8093276 0 0 0
108 0 8 -1.05 0.22158200000000006 6.655251999999998 -24.860896599999997 1 0 0
109 0 8 -1.05 2.415252 2.415252 9.322672400000002 0 0 0
110 0 8 -1.05 6.655251999999998 4.461582 -21.8928966 0 0 0
111 0 8 -1.05 2.415252 2.415252 -26.293327599999998 0 0 0
112 0 8 -1.05 6.581580999999999 6.581580999999999 -23.3768973 0 0 0
113 0 7 1.575 1.3184170000000002 1.3184170000000002 -21.125112099999996 0 0 0
114 0 7 1.575 7.678417 7.678417 -16.673112099999997 0 0 0
115 0 7 1.575 5.5584169999999995 1.3184170000000002 -18.1571121 0 0 0
116 0 6 1.05 3.4384170000000003 7.678417 -19.6411121 0 0 0
117 0 7 1.575 1.3184170000000002 5.5584169999999995 -18.1571121 0 0 0
118 0 7 1.575 7.678417 3.4384170000000003 -19.6411121 0 0 0
119 0 7 1.575 5.5584169999999995 5.5584169999999995 -21.125112099999996 0 0 0
120 0 6 1.05 3.4384170000000003 3.4384170000000003 -16.673112099999997 0 0 0
121 0 7 1.575 4.498416999999998 0.258417 -21.867112099999996 0 0 0
122 0 7 1.575 2.3784170000000002 2.3784170000000002 -18.899112099999996 0 0 0
123 0 6 1.05 6.618416999999998 6.618416999999998 -18.899112099999996 0 0 0
124 0 7 1.575 6.618416999999998 4.498416999999998 -17.4151121 0 0 0
125 0 6 1.05 2.3784170000000002 4.498416999999998 -20.383112099999998 0 0 0
126 0 7 1.575 0.258417 6.618416999999998 -20.383112099999998 0 0 0
127 0 7 1.575 0.258417 2.3784170000000002 -17.4151121 0 0 0
128 0 7 1.575 0.258417 4.498416999999998 -21.867112099999996 0 0 0
129 0 6 1.05 4.498416999999998 2.3784170000000002 -20.383112099999998 0 0 0
130 0 7 1.575 4.498416999999998 6.618416999999998 -17.4151121 0 0 0
131 0 7 1.575 2.3784170000000002 0.258417 -17.4151121 0 0 0
132 0 7 1.575 6.618416999999998 0.258417 -20.383112099999998 0 0 0
133 0 7 1.575 0.258417 0.258417 -18.899112099999996 0 0 0
134 0 6 1.05 6.618416999999998 2.3784170000000002 -21.867112099999996 0 0 0
135 0 6 1.05 2.3784170000000002 6.618416999999998 -21.867112099999996 0 0 0
136 0 7 1.575 4.498416999999998 4.498416999999998 -18.899112099999996 0 0 0
137 0 8 -1.05 2.415252 0.22158200000000006 -15.956896599999997 0 1 0
138 0 8 -1.05 6.581580999999999 0.295252 -21.8413276 0 0 0
139 0 8 -1.05 4.461582 2.415252 -18.9248966 0 0 0
140 0 8 -1.05 4.535251999999998 6.581580999999999 -18.8733276 0 0 0
141 0 8 -1.05 0.22158200000000006 4.461582 -17.389327599999998 1 0 0
142 0 8 -1.05 0.295252 4.535251999999998 -20.408896599999995 0 0 0
143 0 8 -1.05 6.655251999999998 6.655251999999998 -20.357327599999998 0 0 0
144 0 8 -1.05 2.3415820000000003 2.3415820000000003 -17.4408973 0 0 0
145 0 8 -1.05 0.22158200000000006 2.415252 -15.956896599999997 1 0 0
146 0 8 -1.05 0.295252 6.581580999999999 -21.8413276 0 0 0
147 0 8 -1.05 4.461582 4.461582 -20.357327599999998 0 0 0
148 0 8 -1.05 4.535251999999998 4.535251999999998 -17.4408973 0 0 0
149 0 8 -1.05 6.655251999999998 0.22158200000000006 -18.9248966 0 1 0
150 0 8 -1.05 2.3415820000000003 0.295252 -18.8733276 0 0 0
151 0 8 -1.05 2.415252 6.655251999999998 -17.389327599999998 0 0 0
152 0 8 -1.05 6.581580999999999 2.3415820000000003 -20.408896599999995 0 0 0
153 0 8 -1.05 0.22158200000000006 0.22158200000000006 -20.357327599999998 1 1 0
154 0 8 -1.05 0.295252 0.295252 -17.4408973 0 0 0
155 0 8 -1.05 2.415252 4.461582 -18.9248966 0 0 0
156 0 8 -1.05 6.581580999999999 4.535251999999998 -18.8733276 0 0 0
157 0 8 -1.05 4.461582 6.655251999999998 -15.956896599999997 0 0 0
158 0 8 -1.05 4.535251999999998 2.3415820000000003 -21.8413276 0 0 0
159 0 8 -1.05 6.655251999999998 2.415252 -17.389327599999998 0 0 0
160 0 8 -1.05 2.3415820000000003 6.581580999999999 -20.408896599999995 0 0 0
161 0 8 -1.05 4.535251999999998 0.295252 -20.408896599999995 0 0 0
162 0 8 -1.05 4.461582 0.22158200000000006 -17.389327599999998 0 1 0
163 0 8 -1.05 0.295252 2.3415820000000003 -18.8733276 0 0 0
164 0 8 -1.05 0.22158200000000006 6.655251999999998 -18.9248966 1 0 0
165 0 8 -1.05 2.3415820000000003 4.535251999999998 -21.8413276 0 0 0
166 0 8 -1.05 6.655251999999998 4.461582 -15.956896599999997 0 0 0
167 0 8 -1.05 2.415252 2.415252 -20.357327599999998 0 0 0
168 0 8 -1.05 6.581580999999999 6.581580999999999 -17.4408973 0 0 0
169 0 6 1.05 1.3184170000000002 1.3184170000000002 -15.189112099999996 0 0 0
170 0 7 1.575 7.678417 7.678417 -10.737112100000001 0 0 0
171 0 6 1.05 5.5584169999999995 1.3184170000000002 -12.2211121 0 0 0
172 0 7 1.575 3.4384170000000003 7.678417 -13.705112099999997 0 0 0
173 0 7 1.575 1.3184170000000002 5.5584169999999995 -12.2211121 0 0 0
174 0 7 1.575 7.678417 3.4384170000000003 -13.705112099999997 0 0 0
175 0 7 1.575 5.5584169999999995 5.5584169999999995 -15.189112099999996 0 0 0
176 0 7 1.575 3.4384170000000003 3.4384170000000003 -10.737112100000001 0 0 0
177 0 7 1.575 4.498416999999998 0.258417 -15.9311121 0 0 0
178 0 6 1.05 2.3784170000000002 2.3784170000000002 -12.9631121 0 0 0
179 0 7 1.575 6.618416999999998 6.618416999999998 -12.9631121 0 0 0
180 0 6 1.05 6.618416999999998 4.498416999999998 -11.479112099999998 0 0 0
181 0 6 1.05 2.3784170000000002 4.498416999999998 -14.447112099999998 0 0 0
182 0 7 1.575 0.258417 6.618416999999998 -14.447112099999998 0 0 0
183 0 6 1.05 0.258417 2.3784170000000002 -11.479112099999998 0 0 0
184 0 7 1.575 0.258417 4.498416999999998 -15.9311121 0 0 0
185 0 7 1.575 4.498416999999998 2.3784170000000002 -14.447112099999998 0 0 0
186 0 6 1.05 4.498416999999998 6.618416999999998 -11.479112099999998 0 0 0
187 0 7 1.575 2.3784170000000002 0.258417 -11.479112099999998 0 0 0
188 0 7 1.575 6.618416999999998 0.258417 -14.447112099999998 0 0 0
189 0 7 1.575 0.258417 0.258417 -12.9631121 0 0 0
190 0 7 1.575 6.618416999999998 2.3784170000000002 -15.9311121 0 0 0
191 0 7 1.575 2.3784170000000002 6.618416999999998 -15.9311121 0 0 0
192 0 7 1.575 4.498416999999998 4.498416999999998 -12.9631121 0 0 0
193 0 8 -1.05 2.415252 0.22158200000000006 -10.020896599999997 0 1 0
194 0 8 -1.05 6.581580999999999 0.295252 -15.9053276 0 0 0
195 0 8 -1.05 4.461582 2.415252 -12.9888966 0 0 0
196 0 8 -1.05 4.535251999999998 6.581580999999999 -12.937327599999996 0 0 0
197 0 8 -1.05 0.22158200000000006 4.461582 -11.453327599999994 1 0 0
198 0 8 -1.05 0.295252 4.535251999999998 -14.472896599999995 0 0 0
199 0 8 -1.05 6.655251999999998 6.655251999999998 -14.421327599999998 0 0 0
200 0 8 -1.05 2.3415820000000003 2.3415820000000003 -11.5048973 0 0 0
201 0 8 -1.05 0.22158200000000006 2.415252 -10.020896599999997 1 0 0
202 0 8 -1.05 0.295252 6.581580999999999 -15.9053276 0 0 0
203 0 8 -1.05 4.461582 4.461582 -14.421327599999998 0 0 0
204 0 8 -1.05 4.535251999999998 4.535251999999998 -11.5048973 0 0 0
205 0 8 -1.05 6.655251999999998 0.22158200000000006 -12.9888966 0 1 0
206 0 8 -1.05 2.3415820000000003 0.295252 -12.937327599999996 0 0 0
207 0 8 -1.05 2.415252 6.655251999999998 -11.453327599999994 0 0 0
208 0 8 -1.05 6.581580999999999 2.3415820000000003 -14.472896599999995 0 0 0
209 0 8 -1.05 0.22158200000000006 0.22158200000000006 -14.421327599999998 1 1 0
210 0 8 -1.05 0.295252 0.295252 -11.5048973 0 0 0
211 0 8 -1.05 2.415252 4.461582 -12.9888966 0 0 0
212 0 8 -1.05 6.581580999999999 4.535251999999998 -12.937327599999996 0 0 0
213 0 8 -1.05 4.461582 6.655251999999998 -10.020896599999997 0 0 0
214 0 8 -1.05 4.535251999999998 2.3415820000000003 -15.9053276 0 0 0
215 0 8 -1.05 6.655251999999998 2.415252 -11.453327599999994 0 0 0
216 0 8 -1.05 2.3415820000000003 6.581580999999999 -14.472896599999995 0 0 0
217 0 8 -1.05 4.535251999999998 0.295252 -14.472896599999995 0 0 0
218 0 8 -1.05 4.461582 0.22158200000000006 -11.453327599999994 0 1 0
219 0 8 -1.05 0.295252 2.3415820000000003 -12.937327599999996 0 0 0
220 0 8 -1.05 0.22158200000000006 6.655251999999998 -12.9888966 1 0 0
221 0 8 -1.05 2.3415820000000003 4.535251999999998 -15.9053276 0 0 0
222 0 8 -1.05 6.655251999999998 4.461582 -10.020896599999997 0 0 0
223 0 8 -1.05 2.415252 2.415252 -14.421327599999998 0 0 0
224 0 8 -1.05 6.581580999999999 6.581580999999999 -11.5048973 0 0 0
225 0 7 1.575 1.3184170000000002 1.3184170000000002 -9.253112099999992 0 0 0
226 0 7 1.575 7.678417 7.678417 -4.801112099999997 0 0 0
227 0 7 1.575 5.5584169999999995 1.3184170000000002 -6.285112099999996 0 0 0
228 0 7 1.575 3.4384170000000003 7.678417 -7.769112099999994 0 0 0
229 0 7 1.575 1.3184170000000002 5.5584169999999995 -6.285112099999996 0 0 0
230 0 7 1.575 7.678417 3.4384170000000003 -7.769112099999994 0 0 0
231 0 6 1.05 5.5584169999999995 5.5584169999999995 -9.253112099999992 0 0 0
232 0 7 1.575 3.4384170000000003 3.4384170000000003 -4.801112099999997 0 0 0
233 0 7 1.575 4.498416999999998 0.258417 -9.995112099999993 0 0 0
234 0 7 1.575 2.3784170000000002 2.3784170000000002 -7.0271120999999965 0 0 0
235 0 6 1.05 6.618416999999998 6.618416999999998 -7.0271120999999965 0 0 0
236 0 6 1.05 6.618416999999998 4.498416999999998 -5.543112099999998 0 0 0
237 0 6 1.05 2.3784170000000002 4.498416999999998 -8.511112099999995 0 0 0
238 0 7 1.575 0.258417 6.618416999999998 -8.511112099999995 0 0 0
239 0 6 1.05 0.258417 2.3784170000000002 -5.543112099999998 0 0 0
240 0 6 1.05 0.258417 4.498416999999998 -9.995112099999993 0 0 0
241 0 7 1.575 4.498416999999998 2.3784170000000002 -8.511112099999995 0 0 0
242 0 7 1.575 4.498416999999998 6.618416999999998 -5.543112099999998 0 0 0
243 0 6 1.05 2.3784170000000002 0.258417 -5.543112099999998 0 0 0
244 0 6 1.05 6.618416999999998 0.258417 -8.511112099999995 0 0 0
245 0 7 1.575 0.258417 0.258417 -7.0271120999999965 0 0 0
246 0 6 1.05 6.618416999999998 2.3784170000000002 -9.995112099999993 0 0 0
247 0 6 1.05 2.3784170000000002 6.618416999999998 -9.995112099999993 0 0 0
248 0 6 1.05 4.498416999999998 4.498416999999998 -7.0271120999999965 0 0 0
249 0 8 -1.05 2.415252 0.22158200000000006 -4.0848966 0 1 0
250 0 8 -1.05 6.581580999999999 0.295252 -9.969327599999996 0 0 0
251 0 8 -1.05 4.461582 2.415252 -7.0528966 0 0 0
252 0 8 -1.05 4.535251999999998 6.581580999999999 -7.001327599999996 0 0 0
253 0 8 -1.05 0.22158200000000006 4.461582 -5.517327599999998 1 0 0
254 0 8 -1.05 0.295252 4.535251999999998 -8.536896599999999 0 0 0
255 0 8 -1.05 6.655251999999998 6.655251999999998 -8.485327599999994 0 0 0
256 0 8 -1.05 2.3415820000000003 2.3415820000000003 -5.5688973 0 0 0
257 0 8 -1.05 0.22158200000000006 2.415252 -4.0848966 1 0 0
258 0 8 -1.05 0.295252 6.581580999999999 -9.969327599999996 0 0 0
259 0 8 -1.05 4.461582 4.461582 -8.485327599999994 0 0 0
260 0 8 -1.05 4.535251999999998 4.535251999999998 -5.5688973 0 0 0
261 0 8 -1.05 6.655251999999998 0.22158200000000006 -7.0528966 0 1 0
262 0 8 -1.05 2.3415820000000003 0.295252 -7.001327599999996 0 0 0
263 0 8 -1.05 2.415252 6.655251999999998 -5.517327599999998 0 0 0
264 0 8 -1.05 6.581580999999999 2.3415820000000003 -8.536896599999999 0 0 0
265 0 8 -1.05 0.22158200000000006 0.22158200000000006 -8.485327599999994 1 1 0
266 0 8 -1.05 0.295252 0.295252 -5.5688973 0 0 0
267 0 8 -1.05 2.415252 4.461582 -7.0528966 0 0 0
268 0 8 -1.05 6.581580999999999 4.535251999999998 -7.001327599999996 0 0 0
269 0 8 -1.05 4.461582 6.655251999999998 -4.0848966 0 0 0
270 0 8 -1.05 4.535251999999998 2.3415820000000003 -9.969327599999996 0 0 0
271 0 8 -1.05 6.655251999999998 2.415252 -5.517327599999998 0 0 0
272 0 8 -1.05 2.3415820000000003 6.581580999999999 -8.536896599999999 0 0 0
273 0 8 -1.05 4.535251999999998 0.295252 -8.536896599999999 0 0 0
274 0 8 -1.05 4.461582 0.22158200000000006 -5.517327599999998 0 1 0
275 0 8 -1.05 0.295252 2.3415820000000003 -7.001327599999996 0 0 0
276 0 8 -1.05 0.22158200000000006 6.655251999999998 -7.0528966 1 0 0
277 0 8 -1.05 2.3415820000000003 4.535251999999998 -9.969327599999996 0 0 0
278 0 8 -1.05 6.655251999999998 4.461582 -4.0848966 0 0 0
279 0 8 -1.05 2.415252 2.415252 -8.485327599999994 0 0 0
280 0 8 -1.05 6.581580999999999 6.581580999999999 -5.5688973 0 0 0
281 0 7 1.575 1.3184170000000002 1.3184170000000002 -3.3171120999999992 0 0 0
282 0 7 1.575 7.678417 7.678417 1.1348879000000096 0 0 0
283 0 6 1.05 5.5584169999999995 1.3184170000000002 -0.34911209999999926 0 0 0
284 0 7 1.575 3.4384170000000003 7.678417 -1.833112099999994 0 0 0
285 0 7 1.575 1.3184170000000002 5.5584169999999995 -0.34911209999999926 0 0 0
286 0 6 1.05 7.678417 3.4384170000000003 -1.833112099999994 0 0 0
287 0 7 1.575 5.5584169999999995 5.5584169999999995 -3.3171120999999992 0 0 0
288 0 6 1.05 3.4384170000000003 3.4384170000000003 1.1348879000000096 0 0 0
289 0 7 1.575 4.498416999999998 0.258417 -4.059112099999997 0 0 0
290 0 7 1.575 2.3784170000000002 2.3784170000000002 -1.0911120999999895 0 0 0
291 0 6 1.05 6.618416999999998 6.618416999999998 -1.0911120999999895 0 0 0
292 0 7 1.575 6.618416999999998 4.498416999999998 0.3928879000000052 0 0 0
293 0 7 1.575 2.3784170000000002 4.498416999999998 -2.575112100000002 0 0 0
294 0 7 1.575 0.258417 6.618416999999998 -2.575112100000002 0 0 0
295 0 7 1.575 0.258417 2.3784170000000002 0.3928879000000052 0 0 0
296 0 6 1.05 0.258417 4.498416999999998 -4.059112099999997 0 0 0
297 0 7 1.575 4.498416999999998 2.3784170000000002 -2.575112100000002 0 0 0
298 0 7 1.575 4.498416999999998 6.618416999999998 0.3928879000000052 0 0 0
299 0 7 1.575 2.3784170000000002 0.258417 0.3928879000000052 0 0 0
300 0 7 1.575 6.618416999999998 0.258417 -2.575112100000002 0 0 0
301 0 7 1.575 0.258417 0.258417 -1.0911120999999895 0 0 0
302 0 7 1.575 6.618416999999998 2.3784170000000002 -4.059112099999997 0 0 0
303 0 7 1.575 2.3784170000000002 6.618416999999998 -4.059112099999997 0 0 0
304 0 6 1.05 4.498416999999998 4.498416999999998 -1.0911120999999895 0 0 0
305 0 8 -1.05 2.415252 0.22158200000000006 1.8511034000000066 0 1 0
306 0 8 -1.05 6.581580999999999 0.295252 -4.033327599999996 0 0 0
307 0 8 -1.05 4.461582 2.415252 -1.116896599999997 0 0 0
308 0 8 -1.05 4.535251999999998 6.581580999999999 -1.0653275999999963 0 0 0
309 0 8 -1.05 0.22158200000000006 4.461582 0.4186724000000055 1 0 0
310 0 8 -1.05 0.295252 4.535251999999998 -2.6008965999999916 0 0 0
311 0 8 -1.05 6.655251999999998 6.655251999999998 -2.5493275999999874 0 0 0
312 0 8 -1.05 2.3415820000000003 2.3415820000000003 0.3671027000000038 0 0 0
313 0 8 -1.05 0.22158200000000006 2.415252 1.8511034000000066 1 0 0
314 0 8 -1.05 0.295252 6.581580999999999 -4.033327599999996 0 0 0
315 0 8 -1.05 4.461582 4.461582 -2.5493275999999874 0 0 0
316 0 8 -1.05 4.535251999999998 4.535251999999998 0.3671027000000038 0 0 0
317 0 8 -1.05 6.655251999999998 0.22158200000000006 -1.116896599999997 0 1 0
318 0 8 -1.05 2.3415820000000003 0.295252 -1.0653275999999963 0 0 0
319 0 8 -1.05 2.415252 6.655251999999998 0.4186724000000055 0 0 0
320 0 8 -1.05 6.581580999999999 2.3415820000000003 -2.6008965999999916 0 0 0
321 0 8 -1.05 0.22158200000000006 0.22158200000000006 -2.5493275999999874 1 1 0
322 0 8 -1.05 0.295252 0.295252 0.3671027000000038 0 0 0
323 0 8 -1.05 2.415252 4.461582 -1.116896599999997 0 0 0
324 0 8 -1.05 6.581580999999999 4.535251999999998 -1.0653275999999963 0 0 0
325 0 8 -1.05 4.461582 6.655251999999998 1.8511034000000066 0 0 0
326 0 8 -1.05 4.535251999999998 2.3415820000000003 -4.033327599999996 0 0 0
327 0 8 -1.05 6.655251999999998 2.415252 0.4186724000000055 0 0 0
328 0 8 -1.05 2.3415820000000003 6.581580999999999 -2.6008965999999916 0 0 0
329 0 8 -1.05 4.535251999999998 0.295252 -2.6008965999999916 0 0 0
330 0 8 -1.05 4.461582 0.22158200000000006 0.4186724000000055 0 1 0
331 0 8 -1.05 0.295252 2.3415820000000003 -1.0653275999999963 0 0 0
332 0 8 -1.05 0.22158200000000006 6.655251999999998 -1.116896599999997 1 0 0
333 0 8 -1.05 2.3415820000000003 4.535251999999998 -4.033327599999996 0 0 0
334 0 8 -1.05 6.655251999999998 4.461582 1.8511034000000066 0 0 0
335 0 8 -1.05 2.415252 2.415252 -2.5493275999999874 0 0 0
336 0 8 -1.05 6.581580999999999 6.581580999999999 0.3671027000000038 0 0 0
337 0 7 1.575 1.3184170000000002 1.3184170000000002 2.6188879000000043 0 0 0
338 0 7 1.575 7.678417 7.678417 7.0708879000000024 0 0 0
339 0 7 1.575 5.5584169999999995 1.3184170000000002 5.586887899999994 0 0 0
340 0 6 1.05 3.4384170000000003 7.678417 4.102887899999999 0 0 0
341 0 6 1.05 1.3184170000000002 5.5584169999999995 5.586887899999994 0 0 0
342 0 7 1.575 7.678417 3.4384170000000003 4.102887899999999 0 0 0
343 0 6 1.05 5.5584169999999995 5.5584169999999995 2.6188879000000043 0 0 0
344 0 6 1.05 3.4384170000000003 3.4384170000000003 7.0708879000000024 0 0 0
345 0 7 1.575 4.498416999999998 0.258417 1.876887900000007 0 0 0
346 0 7 1.575 2.3784170000000002 2.3784170000000002 4.844887899999996 0 0 0
347 0 7 1.575 6.618416999999998 6.618416999999998 4.844887899999996 0 0 0
348 0 7 1.575 6.618416999999998 4.498416999999998 6.328887899999998 0 0 0
349 0 7 1.575 2.3784170000000002 4.498416999999998 3.3608879000000016 0 0 0
350 0 6 1.05 0.258417 6.618416999999998 3.3608879000000016 0 0 0
351 0 6 1.05 0.258417 2.3784170000000002 6.328887899999998 0 0 0
352 0 7 1.575 0.258417 4.498416999999998 1.876887900000007 0 0 0
353 0 7 1.575 4.498416999999998 2.3784170000000002 3.3608879000000016 0 0 0
354 0 7 1.575 4.498416999999998 6.618416999999998 6.328887899999998 0 0 0
355 0 6 1.05 2.3784170000000002 0.258417 6.328887899999998 0 0 0
356 0 6 1.05 6.618416999999998 0.258417 3.3608879000000016 0 0 0
357 0 7 1.575 0.258417 0.258417 4.844887899999996 0 0 0
358 0 7 1.575 6.618416999999998 2.3784170000000002 1.876887900000007 0 0 0
359 0 7 1.575 2.3784170000000002 6.618416999999998 1.876887900000007 0 0 0
360 0 6 1.05 4.498416999999998 4.498416999999998 4.844887899999996 0 0 0
361 0 8 -1.05 2.415252 0.22158200000000006 7.787103400000007 0 1 0
362 0 8 -1.05 6.581580999999999 0.295252 1.9026724000000002 0 0 0
363 0 8 -1.05 4.461582 2.415252 4.819103400000003 0 0 0
364 0 8 -1.05 4.535251999999998 6.581580999999999 4.870672399999997 0 0 0
365 0 8 -1.05 0.22158200000000006 4.461582 6.354672400000005 1 0 0
366 0 8 -1.05 0.295252 4.535251999999998 3.3351034000000013 0 0 0
367 0 8 -1.05 6.655251999999998 6.655251999999998 3.386672400000002 0 0 0
368 0 8 -1.05 2.3415820000000003 2.3415820000000003 6.303102699999997 0 0 0
369 0 8 -1.05 0.22158200000000006 2.415252 7.787103400000007 1 0 0
370 0 8 -1.05 0.295252 6.581580999999999 1.9026724000000002 0 0 0
371 0 8 -1.05 4.461582 4.461582 3.386672400000002 0 0 0
372 0 8 -1.05 4.535251999999998 4.535251999999998 6.303102699999997 0 0 0
373 0 8 -1.05 6.655251999999998 0.22158200000000006 4.819103400000003 0 1 0
374 0 8 -1.05 2.3415820000000003 0.295252 4.870672399999997 0 0 0
375 0 8 -1.05 2.415252 6.655251999999998 6.354672400000005 0 0 0
376 0 8 -1.05 6.581580999999999 2.3415820000000003 3.3351034000000013 0 0 0
377 0 8 -1.05 0.22158200000000006 0.22158200000000006 3.386672400000002 1 1 0
378 0 8 -1.05 0.295252 0.295252 6.303102699999997 0 0 0
379 0 8 -1.05 2.415252 4.461582 4.819103400000003 0 0 0
380 0 8 -1.05 6.581580999999999 4.535251999999998 4.870672399999997 0 0 0
381 0 8 -1.05 4.461582 6.655251999999998 7.787103400000007 0 0 0
382 0 8 -1.05 4.535251999999998 2.3415820000000003 1.9026724000000002 0 0 0
383 0 8 -1.05 6.655251999999998 2.415252 6.354672400000005 0 0 0
384 0 8 -1.05 2.3415820000000003 6.581580999999999 3.3351034000000013 0 0 0
385 0 8 -1.05 4.535251999999998 0.295252 3.3351034000000013 0 0 0
386 0 8 -1.05 4.461582 0.22158200000000006 6.354672400000005 0 1 0
387 0 8 -1.05 0.295252 2.3415820000000003 4.870672399999997 0 0 0
388 0 8 -1.05 0.22158200000000006 6.655251999999998 4.819103400000003 1 0 0
389 0 8 -1.05 2.3415820000000003 4.535251999999998 1.9026724000000002 0 0 0
390 0 8 -1.05 6.655251999999998 4.461582 7.787103400000007 0 0 0
391 0 8 -1.05 2.415252 2.415252 3.386672400000002 0 0 0
392 0 8 -1.05 6.581580999999999 6.581580999999999 6.303102699999997 0 0 0
393 0 7 1.575 1.3184170000000002 1.3184170000000002 8.554887899999997 0 0 0
394 0 7 1.575 7.678417 7.678417 13.006887900000002 0 0 0
395 0 7 1.575 5.5584169999999995 1.3184170000000002 11.522887899999986 0 0 0
396 0 7 1.575 3.4384170000000003 7.678417 10.038887900000006 0 0 0
397 0 6 1.05 1.3184170000000002 5.5584169999999995 11.522887899999986 0 0 0
398 0 7 1.575 7.678417 3.4384170000000003 10.038887900000006 0 0 0
399 0 6 1.05 5.5584169999999995 5.5584169999999995 8.554887899999997 0 0 0
400 0 7 1.575 3.4384170000000003 3.4384170000000003 13.006887900000002 0 0 0
401 0 6 1.05 4.498416999999998 0.258417 7.8128879 0 0 0
402 0 6 1.05 2.3784170000000002 2.3784170000000002 10.780887899999996 0 0 0
403 0 6 1.05 6.618416999999998 6.618416999999998 10.780887899999996 0 0 0
404 0 7 1.575 6.618416999999998 4.498416999999998 12.264887899999998 0 0 0
405 0 7 1.575 2.3784170000000002 4.498416999999998 9.296887899999994 0 0 0
406 0 7 1.575 0.258417 6.618416999999998 9.296887899999994 0 0 0
407 0 7 1.575 0.258417 2.3784170000000002 12.264887899999998 0 0 0
408 0 6 1.05 0.258417 4.498416999999998 7.8128879 0 0 0
409 0 7 1.575 4.498416999999998 2.3784170000000002 9.296887899999994 0 0 0
410 0 6 1.05 4.498416999999998 6.618416999999998 12.264887899999998 0 0 0
411 0 7 1.575 2.3784170000000002 0.258417 12.264887899999998 0 0 0
412 0 6 1.05 6.618416999999998 0.258417 9.296887899999994 0 0 0
413 0 7 1.575 0.258417 0.258417 10.780887899999996 0 0 0
414 0 7 1.575 6.618416999999998 2.3784170000000002 7.8128879 0 0 0
415 0 7 1.575 2.3784170000000002 6.618416999999998 7.8128879 0 0 0
416 0 7 1.575 4.498416999999998 4.498416999999998 10.780887899999996 0 0 0
417 0 8 -1.05 2.415252 0.22158200000000006 13.723103399999992 0 1 0
418 0 8 -1.05 6.581580999999999 0.295252 7.8386724 0 0 0
419 0 8 -1.05 4.461582 2.415252 10.755103399999996 0 0 0
420 0 8 -1.05 4.535251999999998 6.581580999999999 10.806672399999997 0 0 0
421 0 8 -1.05 0.22158200000000006 4.461582 12.290672399999998 1 0 0
422 0 8 -1.05 0.295252 4.535251999999998 9.271103400000001 0 0 0
423 0 8 -1.05 6.655251999999998 6.655251999999998 9.322672400000002 0 0 0
424 0 8 -1.05 2.3415820000000003 2.3415820000000003 12.239102699999997 0 0 0
425 0 8 -1.05 0.22158200000000006 2.415252 13.723103399999992 1 0 0
426 0 8 -1.05 0.295252 6.581580999999999 7.8386724 0 0 0
427 0 8 -1.05 4.461582 4.461582 9.322672400000002 0 0 0
428 0 8 -1.05 4.535251999999998 4.535251999999998 12.239102699999997 0 0 0
429 0 8 -1.05 6.655251999999998 0.22158200000000006 10.755103399999996 0 1 0
430 0 8 -1.05 2.3415820000000003 0.295252 10.806672399999997 0 0 0
431 0 8 -1.05 2.415252 6.655251999999998 12.290672399999998 0 0 0
432 0 8 -1.05 6.581580999999999 2.3415820000000003 9.271103400000001 0 0 0
433 0 8 -1.05 0.22158200000000006 0.22158200000000006 9.322672400000002 1 1 0