ITEM: TIMESTEP
0
ITEM: NUMBER OF ATOMS
576
ITEM: BOX BOUNDS pp pp ff
0.0000000000000000e+00 2.5440000000000001e+01
0.0000000000000000e+00 2.5440000000000001e+01
-4.1458421999999999e+01 3.2908000000000001e+01
ITEM: ATOMS id type c_coord
1388 6 0
1391 7 0
1397 6 4
1402 6 0
1405 7 0
1411 6 4
1416 6 0
1419 7 0
1425 6 4
1432 7 4
1437 7 0
1440 7 0
1446 7 4
1451 7 0
1454 7 0
1460 7 4
1465 7 0
1468 7 0
1472 6 0
1475 7 0
1481 6 4
1486 6 0
1489 7 0
1495 6 4
1500 6 0
1503 7 0
1509 6 4
1516 7 4
1521 7 0
1524 7 0
1530 7 4
1535 7 0
1538 7 0
1544 7 4
1549 7 0
1552 7 0
1556 6 0
1559 7 0
1565 6 4
1570 6 0
1573 7 0
1579 6 4
1584 6 0
1587 7 0
1593 6 4
1600 7 4
1605 7 0
1608 7 0
1614 7 4
1619 7 0
1622 7 0
1628 7 4
1633 7 0
1636 7 0
1641 7 0
1643 6 4
1645 7 0
1649 7 0
1650 7 0
1655 6 0
1656 6 0
1658 6 4
1661 7 0
1663 6 4
1665 7 0
1669 7 0
1670 7 0
1675 6 0
1676 6 0
1678 6 4
1681 7 0
1683 6 4
1685 7 0
1689 7 0
1690 7 0
1695 6 0
1696 6 0
1698 6 4
1700 7 0
1701 7 0
1706 6 0
1707 7 0
1709 7 4
1712 6 0
1714 7 4
1716 6 0
1720 7 0
1721 7 0
1726 6 0
1727 7 0
1729 7 4
1732 6 0
1734 7 4
1736 6 0
1740 7 0
1741 7 0
1746 6 0
1747 7 0
1749 7 4
1752 6 0
1754 7 4
1756 6 0
1761 7 0
1763 6 4
1765 7 0
1769 7 0
1770 7 0
1775 6 0
1776 6 0
1778 6 4
1781 7 0
1783 6 4
1785 7 0
1789 7 0
1790 7 0
1795 6 0
1796 6 0
1798 6 4
1801 7 0
1803 6 4
1805 7 0
1809 7 0
1810 7 0
1815 6 0
1816 6 0
1818 6 4
1820 7 0
1821 7 0
1826 6 0
1827 7 0
1829 7 4
1832 6 0
1834 7 4
1836 6 0
1840 7 0
1841 7 0
1846 6 0
1847 7 0
1849 7 4
1852 6 0
1854 7 4
1856 6 0
1860 7 0
1861 7 0
1866 6 0
1867 7 0
1869 7 4
1872 6 0
1874 7 4
1876 6 0
1881 7 0
1883 6 4
1885 7 0
1889 7 0
1890 7 0
1895 6 0
1896 6 0
1898 6 4
1901 7 0
1903 6 4
1905 7 0
1909 7 0
1910 7 0
1915 6 0
1916 6 0
1918 6 4
1921 7 0
1923 6 4
1925 7 0
1929 7 0
1930 7 0
1935 6 0
1936 6 0
1938 6 4
1940 7 0
1941 7 0
1946 6 0
1947 7 0
1949 7 4
1952 6 0
1954 7 4
1956 6 0
1960 7 0
1961 7 0
1966 6 0
1967 7 0
1969 7 4
1972 6 0
1974 7 4
1976 6 0
1980 7 0
1981 7 0
1986 6 0
1987 7 0
1989 7 4
1992 6 0
1994 7 4
1996 6 0
1999 7 0
2000 7 0
2005 7 0
2006 7 0
2007 7 4
2010 7 4
2013 7 0
2014 7 0
2019 7 0
2020 7 0
2021 7 4
2024 7 4
2027 7 0
2028 7 0
2033 7 0
2034 7 0
2035 7 4
2038 7 4
2043 7 4
2046 7 0
2047 6 0
2052 7 0
2053 7 0
2054 7 4
2057 7 4
2060 7 0
2061 6 0
2066 7 0
2067 7 0
2068 7 4
2071 7 4
2074 7 0
2075 6 0
2080 7 0
2081 7 0
2082 7 4
2083 7 0
2084 7 0
2089 7 0
2090 7 0
2091 7 4
2094 7 4
2097 7 0
2098 7 0
2103 7 0
2104 7 0
2105 7 4
2108 7 4
2111 7 0
2112 7 0
2117 7 0
2118 7 0
2119 7 4
2122 7 4
2127 7 4
2130 7 0
2131 6 0
2136 7 0
2137 7 0
2138 7 4
2141 7 4
2144 7 0
2145 6 0
2150 7 0
2151 7 0
2152 7 4
2155 7 4
2158 7 0
2159 6 0
2164 7 0
2165 7 0
2166 7 4
2167 7 0
2168 7 0
2173 7 0
2174 7 0
2175 7 4
2178 7 4
2181 7 0
2182 7 0
2187 7 0
2188 7 0
2189 7 4
2192 7 4
2195 7 0
2196 7 0
2201 7 0
2202 7 0
2203 7 4
2206 7 4
2211 7 4
2214 7 0
2215 6 0
2220 7 0
2221 7 0
2222 7 4
2225 7 4
2228 7 0
2229 6 0
2234 7 0
2235 7 0
2236 7 4
2239 7 4
2242 7 0
2243 6 0
2248 7 0
2249 7 0
2250 7 4
2253 7 4
2256 7 0
2257 7 0
2262 7 0
2263 7 0
2264 7 4
2267 7 4
2270 7 0
2271 7 0
2276 7 0
2277 7 0
2278 7 4
2281 7 4
2284 7 0
2285 7 0
2290 7 0
2291 7 0
2292 7 4
2293 7 0
2294 7 0
2299 7 0
2300 7 0
2301 7 4
2304 7 4
2307 7 0
2308 7 0
2313 7 0
2314 7 0
2315 7 4
2318 7 4
2321 7 0
2322 7 0
2327 7 0
2328 7 0
2329 7 4
2332 7 4
2337 7 4
2340 7 0
2341 7 0
2346 7 0
2347 7 0
2348 7 4
2351 7 4
2354 7 0
2355 7 0
2360 7 0
2361 7 0
2362 7 4
2365 7 4
2368 7 0
2369 7 0
2374 7 0
2375 7 0
2376 7 4
2377 7 0
2378 7 0
2383 7 0
2384 7 0
2385 7 4
2388 7 4
2391 7 0
2392 7 0
2397 7 0
2398 7 0
2399 7 4
2402 7 4
2405 7 0
2406 7 0
2411 7 0
2412 7 0
2413 7 4
2416 7 4
2421 7 4
2424 7 0
2425 7 0
2430 7 0
2431 7 0
2432 7 4
2435 7 4
2438 7 0
2439 7 0
2444 7 0
2445 7 0
2446 7 4
2449 7 4
2452 7 0
2453 7 0
2458 7 0
2459 7 0
2460 7 4
2461 7 0
2462 7 0
2467 7 0
2468 7 0
2469 7 4
2472 7 4
2475 7 0
2476 7 0
2481 7 0
2482 7 0
2483 7 4
2486 7 4
2489 7 0
2490 7 0
2495 7 0
2496 7 0
2497 7 4
2500 7 4
2503 7 0
2504 6 0
2509 7 0
2510 7 0
2511 6 4
2514 7 4
2517 7 4
2518 7 0
2519 6 0
2524 7 0
2525 7 0
2526 6 4
2529 7 4
2532 7 4
2533 7 0
2534 6 0
2539 7 0
2540 7 0
2541 6 4
2544 7 4
2547 7 4
2550 7 4
2553 6 4
2554 6 0
2555 7 0
2560 7 0
2561 6 0
2562 7 4
2565 7 4
2568 6 4
2569 6 0
2570 7 0
2575 7 0
2576 6 0
2577 7 4
2580 7 4
2583 6 4
2584 6 0
2585 7 0
2590 7 0
2591 6 0
2592 7 4
2593 7 0
2594 6 0
2599 7 0
2600 7 0
2601 6 4
2604 7 4
2607 7 4
2608 7 0
2609 6 0
2614 7 0
2615 7 0
2616 6 4
2619 7 4
2622 7 4
2623 7 0
2624 6 0
2629 7 0
2630 7 0
2631 6 4
2634 7 4
2637 7 4
2640 7 4
2643 6 4
2644 6 0
2645 7 0
2650 7 0
2651 6 0
2652 7 4
2655 7 4
2658 6 4
2659 6 0
2660 7 0
2665 7 0
2666 6 0
2667 7 4
2670 7 4
2673 6 4
2674 6 0
2675 7 0
2680 7 0
2681 6 0
2682 7 4
2683 7 0
2684 6 0
2689 7 0
2690 7 0
2691 6 4
2694 7 4
2697 7 4
2698 7 0
2699 6 0
2704 7 0
2705 7 0
2706 6 4
2709 7 4
2712 7 4
2713 7 0
2714 6 0
2719 7 0
2720 7 0
2721 6 4
2724 7 4
2727 7 4
2730 7 4
2733 6 4
2734 6 0
2735 7 0
2740 7 0
2741 6 0
2742 7 4
2745 7 4
2748 6 4
2749 6 0
2750 7 0
2755 7 0
2756 6 0
2757 7 4
2760 7 4
2763 6 4
2764 6 0
2765 7 0
2770 7 0
2771 6 0
2772 7 4
2775 6 0
2778 7 0
2781 6 0
2784 7 0
2787 6 0
2790 7 0
2792 7 1
2798 7 1
2803 7 1
2809 7 1
2814 7 1
2820 7 1
2826 6 0
2829 7 0
2832 6 0
2835 7 0
2838 6 0
2841 7 0
2843 7 1
2849 7 1
2854 7 1
2860 7 1
2865 7 1
2871 7 1
2877 6 0
2880 7 0
2883 6 0
2886 7 0
2889 6 0
2892 7 0
2894 7 1
2900 7 1
2905 7 1
2911 7 1
2916 7 1
2922 7 1
