LAMMPS (29 Sep 2021 - Update 2)
variable  rand equal round(random(0,1e7,452345))
variable layer index 21

variable temp index 500000 450000 405000 364500 328050 295245 265720 239148 215233 193709 174338 156904 141213 127091 114381 102942 92647 83382 75043 67538 60784 54705 49234 44310 39879 35891 32301 29070 26163 23546 21191 19071 17163 15446 13901 12510 11259 10133 9119 8207 7386 6647 5982 5383 4844 4359 3923 3530 3177 2859 2573 2315 2083 1874 1686 1517 1365 1228 1105 994 894 804 723 650 585 526 473 425 382 343 308 277 249 224 201 180 162 145 130 117 105 94 84 75 67 60 54 48 43 38 34 30 27 24 21 18 16 14 12 10 9 8 7 6 5 4 3 2 1

variable type string tet_half

include settings.lmp
units              real
atom_style         full
timestep	   0.5
boundary	   p p f

pair_style         lj/cut/coul/long 12.0
bond_style         harmonic
angle_style        harmonic
dihedral_style     fourier
improper_style     cvff
kspace_style       pppm 1.0e-6
kspace_modify      slab 3.0

pair_modify        mix arithmetic
special_bonds      amber
neighbor           2.0 bin
neigh_modify       every 1 delay 0 check yes

read_data 001-dbt_3x3_${layer}L_fa_${type}_on_bulk_init.data
read_data 001-dbt_3x3_21L_fa_${type}_on_bulk_init.data
read_data 001-dbt_3x3_21L_fa_tet_half_on_bulk_init.data
Reading data file ...
  orthogonal box = (0.0000000 0.0000000 -41.458422) to (25.440000 25.440000 32.908000)
  2 by 2 by 5 MPI processor grid
  reading atoms ...
  2925 atoms
  reading velocities ...
  2925 velocities
  scanning bonds ...
  3 = max bonds/atom
  scanning angles ...
  3 = max angles/atom
  scanning impropers ...
  1 = max impropers/atom
  reading bonds ...
  36 bonds
  reading angles ...
  54 angles
  reading impropers ...
  9 impropers
Finding 1-2 1-3 1-4 neighbors ...
  special bond factors lj:    0        0        0.5     
  special bond factors coul:  0        0        0.8333333333333334
     3 = max # of 1-2 neighbors
     2 = max # of 1-3 neighbors
     2 = max # of 1-4 neighbors
     3 = max # of special neighbors
  special bonds CPU = 0.001 seconds
  read_data CPU = 0.026 seconds

include ff_formic_acid_fe304.param
#####################-----formic_acid-----######################################

mass  1   12.011   # Sp2 C carbonyl group
mass  2    1.008   # H bonded to non-sp3 carbon with 2 electrwd. group
mass  3   15.9994  # Oxygen with one connected atom
mass  4   15.9994  # Oxygen in hydroxyl group
mass  5    1.008   # Hydroxyl group

pair_coeff  1  1   0.0988  3.31521230994  # c
pair_coeff  2  2   0.0161  2.44729877873  # h5
pair_coeff  3  3   0.1463  3.04812087425  # o
pair_coeff  4  4   0.0930  3.24287133403  # oh
pair_coeff  5  5   0.0047  0.537924646013 # ho

bond_coeff  1  361.80  1.105  # c-h5
bond_coeff  2  652.57  1.218  # c=o
bond_coeff  3  383.13  1.351  # c-oh
bond_coeff  4  563.51  0.973  # o-h

angle_coeff  1   51.617  106.550  # c-oh-ho
angle_coeff  2   65.930  123.650  # h5-c=o
angle_coeff  3   65.262  109.490  # h5-c-oh
angle_coeff  4  115.745  122.100  # o=c-oh

dihedral_coeff  1  1  2.3  2  180.0               # h5-c-oh-ho
dihedral_coeff  2  2  2.3  2  180.0  1.9  1  0.0  # o=c-oh-ho

                              #  h5
                              #  |
improper_coeff  1  10.5 -1 2  #  c
                              # / \
                              # o  oh

#####################-----formate-----###########################################

angle_coeff  5   118.817 130.250  # o-c-o

                              #  h5
                              #  |
improper_coeff  2  10.5 -1 2  #  c
                              # / \
                              # o  o

#####################-----magnetite-----#########################################

mass  6   55.845   # Iron(II)
mass  7   55.845   # Iron(III)
mass  8   15.9994  # Bridging oxygen
mass  9   15.9994  # Hydroxyl oxygen
mass  10   1.008   # Hydroxyl hydrogen

pair_coeff  6  6   9.0298e-07  4.90620  # fe2
pair_coeff  7  7   9.0298e-07  4.90620  # fe3
pair_coeff  8  8   0.1554      3.16554  # ob
pair_coeff  9  9   0.1554      3.16554  # oh
pair_coeff  10 10  0.0         0.0      # ho

bond_coeff  5  554.1349  1.0   # oh-ho
bond_coeff  6    0.0     2.08  # fe-oh (dummy bond)

angle_coeff  6   30.0  109.470  # fe-oh-ho

##################################################################################

dump dmp all custom 10000 swap_${layer}L_${type}.lammpstrj id mol type q x y z
dump dmp all custom 10000 swap_21L_${type}.lammpstrj id mol type q x y z
dump dmp all custom 10000 swap_21L_tet_half.lammpstrj id mol type q x y z
dump_modify dmp sort id

# Formate coated fe ions.
group fe molecule 99
576 atoms in group fe
variable nfe equal count(fe)
variable nsteps equal round((${nfe}*${nfe})/4)
variable nsteps equal round((576*${nfe})/4)
variable nsteps equal round((576*576)/4)

compute coord fe coord/atom cutoff 2.0
dump coord fe custom 1 fe_${layer}L.coord id type c_coord
dump coord fe custom 1 fe_21L.coord id type c_coord
dump_modify coord sort id
run 0
WARNING: No fixes defined, atoms won't move (../verlet.cpp:55)
PPPM initialization ...
  using 12-bit tables for long-range coulomb (../kspace.cpp:340)
  G vector (1/distance) = 0.29588697
  grid = 45 45 200
  stencil order = 5
  estimated absolute RMS force accuracy = 0.00034195275
  estimated relative force accuracy = 1.0297805e-06
  using double precision KISS FFT
  3d grid and FFT values/proc = 144150 77234
Neighbor list info ...
  update every 1 steps, delay 0 steps, check yes
  max neighbors/atom: 2000, page size: 100000
  master list distance cutoff = 14
  ghost atom cutoff = 14
  binsize = 7, bins = 4 4 11
  2 neighbor lists, perpetual/occasional/extra = 1 1 0
  (1) pair lj/cut/coul/long, perpetual
      attributes: half, newton on
      pair build: half/bin/newton
      stencil: half/bin/3d
      bin: standard
  (2) compute coord/atom, occasional
      attributes: full, newton on
      pair build: full/bin
      stencil: full/bin/3d
      bin: standard
Per MPI rank memory allocation (min/avg/max) = 14.15 | 16.91 | 24.54 Mbytes
Step Temp E_pair E_mol TotEng Press 
       0            0    -530203.2    3317.5994    -526885.6   -10722.596 
Loop time of 8.015e-06 on 20 procs for 0 steps with 2925 atoms

70.5% CPU use with 20 MPI tasks x no OpenMP threads

MPI task timing breakdown:
Section |  min time  |  avg time  |  max time  |%varavg| %total
---------------------------------------------------------------
Pair    | 0          | 0          | 0          |   0.0 |  0.00
Bond    | 0          | 0          | 0          |   0.0 |  0.00
Kspace  | 0          | 0          | 0          |   0.0 |  0.00
Neigh   | 0          | 0          | 0          |   0.0 |  0.00
Comm    | 0          | 0          | 0          |   0.0 |  0.00
Output  | 0          | 0          | 0          |   0.0 |  0.00
Modify  | 0          | 0          | 0          |   0.0 |  0.00
Other   |            | 8.015e-06  |            |       |100.00

Nlocal:        146.250 ave         225 max           4 min
Histogram: 4 0 4 0 0 0 0 0 0 12
Nghost:        4046.35 ave        6291 max        2315 min
Histogram: 8 0 0 0 0 8 0 0 0 4
Neighs:        70085.2 ave      122110 max          69 min
Histogram: 4 0 4 0 0 0 3 1 0 8
FullNghs:      140170.0 ave      238698 max        1920 min
Histogram: 4 4 0 0 0 0 0 0 4 8

Total # of neighbors = 2803410
Ave neighs/atom = 958.43077
Ave special neighs/atom = 0.043076923
Neighbor list builds = 0
Dangerous builds = 0
variable fet atom c_coord==4
group fet variable fet
180 atoms in group fet
group feo subtract fe fet
396 atoms in group feo
undump coord

# Reset molIDs
set mol 1 mol 0
Setting atom values ...
  216 settings made for mol
set mol 2 mol 0
Setting atom values ...
  1269 settings made for mol
set group fet mol 1
Setting atom values ...
  180 settings made for mol
set group feo mol 2
Setting atom values ...
  396 settings made for mol

variable fet3 atom "gmask(fet) && q == 1.575"
group fet3 dynamic fe var fet3 every 100
dynamic group fet3 defined
variable rfet3 equal count(fet3)/count(fet)

variable feo3 atom "gmask(feo) && q == 1.575"
group feo3 dynamic fe var feo3 every 100
dynamic group feo3 defined
variable rfeo3 equal count(feo3)/count(feo)

variable cnum equal 109

# High Tmc swaps to randomize the oxidation states.
fix swp fe atom/swap 1 1 ${rand} 5000000 ke no types 6 7
fix swp fe atom/swap 1 1 855824 5000000 ke no types 6 7
thermo 1000
thermo_style custom step pe f_swp[1] f_swp[2] v_rfet3 v_rfeo3
run 100000
PPPM initialization ...
  using 12-bit tables for long-range coulomb (../kspace.cpp:340)
  G vector (1/distance) = 0.29588697
  grid = 45 45 200
  stencil order = 5
  estimated absolute RMS force accuracy = 0.00034195275
  estimated relative force accuracy = 1.0297805e-06
  using double precision KISS FFT
  3d grid and FFT values/proc = 144150 77234
Per MPI rank memory allocation (min/avg/max) = 12.88 | 15.64 | 23.27 Mbytes
Step PotEng f_swp[1] f_swp[2] v_rfet3 v_rfeo3 
       0    -526885.6            0            0         0.75         0.75 
    1000   -531611.15         1000          991         0.75         0.75 
    2000   -530123.36         2000         1983   0.77222222   0.73989899 
    3000   -529785.34         3000         2983   0.75555556   0.74747475 
    4000    -529454.4         4000         3979         0.75         0.75 
    5000   -530060.31         5000         4972   0.72777778   0.76010101 
    6000   -529174.46         6000         5967   0.79444444   0.72979798 
    7000   -529921.09         7000         6962   0.74444444   0.75252525 
    8000   -528072.51         8000         7955   0.72222222   0.76262626 
    9000   -530517.25         9000         8950   0.74444444   0.75252525 
   10000   -531992.06        10000         9948   0.80555556   0.72474747 
   11000   -531242.71        11000        10941   0.70555556   0.77020202 
   12000   -530606.22        12000        11933   0.72222222   0.76262626 
   13000   -531016.23        13000        12924   0.75555556   0.74747475 
   14000   -531532.17        14000        13917   0.77777778   0.73737374 
   15000   -529409.86        15000        14914   0.77222222   0.73989899 
   16000   -529495.84        16000        15907   0.74444444   0.75252525 
   17000   -530027.32        17000        16899   0.76111111   0.74494949 
   18000   -530166.39        18000        17893   0.76111111   0.74494949 
   19000   -531252.41        19000        18891   0.72777778   0.76010101 
   20000   -529524.85        20000        19883   0.74444444   0.75252525 
   21000   -529837.11        21000        20878   0.76111111   0.74494949 
   22000   -531041.43        22000        21869   0.72222222   0.76262626 
   23000   -526314.56        23000        22863   0.79444444   0.72979798 
   24000    -529406.7        24000        23858   0.76111111   0.74494949 
   25000   -531988.34        25000        24847   0.75555556   0.74747475 
   26000   -529829.72        26000        25839   0.78333333   0.73484848 
   27000   -530195.36        27000        26829   0.75555556   0.74747475 
   28000   -530117.76        28000        27819          0.7   0.77272727 
   29000      -526317        29000        28810   0.78888889   0.73232323 
   30000   -530362.39        30000        29803   0.79444444   0.72979798 
   31000   -530998.19        31000        30796   0.73333333   0.75757576 
   32000   -527848.33        32000        31792   0.73333333   0.75757576 
   33000   -529189.81        33000        32787   0.72222222   0.76262626 
   34000   -529310.44        34000        33782   0.77222222   0.73989899 
   35000   -529612.07        35000        34771   0.77222222   0.73989899 
   36000   -528709.79        36000        35765   0.75555556   0.74747475 
   37000   -531711.77        37000        36758         0.75         0.75 
   38000   -529960.27        38000        37749   0.71666667   0.76515152 
   39000   -530626.62        39000        38744   0.77222222   0.73989899 
   40000   -531566.89        40000        39740         0.75         0.75 
   41000   -529824.83        41000        40732   0.73888889   0.75505051 
   42000   -528977.02        42000        41731   0.74444444   0.75252525 
   43000   -527674.68        43000        42724   0.78333333   0.73484848 
   44000   -530495.95        44000        43718   0.76111111   0.74494949 
   45000   -531336.08        45000        44711   0.71111111   0.76767677 
   46000   -528671.37        46000        45702         0.75         0.75 
   47000    -530733.3        47000        46694   0.77777778   0.73737374 
   48000   -531341.46        48000        47690          0.8   0.72727273 
   49000   -531545.16        49000        48687   0.77222222   0.73989899 
   50000   -529103.03        50000        49682   0.77777778   0.73737374 
   51000   -531881.02        51000        50677   0.71666667   0.76515152 
   52000   -529982.54        52000        51669   0.78888889   0.73232323 
   53000   -530315.02        53000        52661   0.76111111   0.74494949 
   54000    -531214.6        54000        53653   0.73333333   0.75757576 
   55000   -528567.18        55000        54644         0.75         0.75 
   56000   -528242.68        56000        55633          0.8   0.72727273 
   57000   -528203.37        57000        56625   0.70555556   0.77020202 
   58000   -532163.56        58000        57619   0.72777778   0.76010101 
   59000    -526892.5        59000        58612   0.71111111   0.76767677 
   60000   -529827.08        60000        59603   0.72777778   0.76010101 
   61000   -531136.02        61000        60598          0.8   0.72727273 
   62000   -530000.27        62000        61591   0.71111111   0.76767677 
   63000   -530794.31        63000        62585   0.75555556   0.74747475 
   64000    -529838.4        64000        63574   0.75555556   0.74747475 
   65000   -530931.64        65000        64564   0.76111111   0.74494949 
   66000   -529326.72        66000        65556   0.77777778   0.73737374 
   67000   -528733.73        67000        66552   0.76111111   0.74494949 
   68000   -528474.78        68000        67545   0.74444444   0.75252525 
   69000   -530421.66        69000        68540         0.75         0.75 
   70000   -530056.17        70000        69528   0.78888889   0.73232323 
   71000   -528350.87        71000        70521   0.72777778   0.76010101 
   72000   -530886.92        72000        71516   0.75555556   0.74747475 
   73000    -528094.3        73000        72511         0.75         0.75 
   74000   -530463.58        74000        73502   0.78888889   0.73232323 
   75000   -528030.35        75000        74493         0.75         0.75 
   76000    -527725.3        76000        75487          0.7   0.77272727 
   77000   -530979.72        77000        76479   0.73888889   0.75505051 
   78000   -523038.73        78000        77473   0.75555556   0.74747475 
   79000   -529461.05        79000        78464         0.75         0.75 
   80000   -530923.94        80000        79459   0.75555556   0.74747475 
   81000   -530986.36        81000        80454   0.77222222   0.73989899 
   82000   -528569.82        82000        81450   0.77222222   0.73989899 
   83000   -530584.76        83000        82446   0.72222222   0.76262626 
   84000   -530469.02        84000        83436   0.72222222   0.76262626 
   85000   -526664.61        85000        84428   0.73888889   0.75505051 
   86000   -527441.39        86000        85423   0.74444444   0.75252525 
   87000   -530709.41        87000        86415   0.81666667   0.71969697 
   88000    -531807.6        88000        87408   0.72222222   0.76262626 
   89000   -528867.34        89000        88398   0.76111111   0.74494949 
   90000   -531316.02        90000        89392   0.73333333   0.75757576 
   91000   -529379.19        91000        90389   0.71666667   0.76515152 
   92000    -528526.1        92000        91384   0.76111111   0.74494949 
   93000   -530123.23        93000        92375   0.77222222   0.73989899 
   94000   -528929.52        94000        93371   0.73888889   0.75505051 
   95000   -530252.43        95000        94365   0.77777778   0.73737374 
   96000   -528501.42        96000        95356   0.78333333   0.73484848 
   97000   -527541.48        97000        96344   0.77777778   0.73737374 
   98000   -530656.86        98000        97343   0.71666667   0.76515152 
   99000   -531133.65        99000        98335   0.72777778   0.76010101 
  100000    -531044.4       100000        99329   0.74444444   0.75252525 
Loop time of 5319.19 on 20 procs for 100000 steps with 2925 atoms

Performance: 0.812 ns/day, 29.551 hours/ns, 18.800 timesteps/s
99.4% CPU use with 20 MPI tasks x no OpenMP threads

MPI task timing breakdown:
Section |  min time  |  avg time  |  max time  |%varavg| %total
---------------------------------------------------------------
Pair    | 0.64712    | 109.74     | 191.55     | 698.5 |  2.06
Bond    | 0.062551   | 0.17039    | 0.50075    |  35.8 |  0.00
Kspace  | 915.07     | 996.92     | 1106.6     | 233.2 | 18.74
Neigh   | 266.39     | 272.25     | 283.74     |  36.7 |  5.12
Comm    | 33.535     | 49.888     | 58.65      | 126.9 |  0.94
Output  | 0.013058   | 0.016935   | 0.024979   |   2.8 |  0.00
Modify  | 3884.6     | 3888.1     | 3892.9     |   5.3 | 73.10
Other   |            | 2.126      |            |       |  0.04

Nlocal:        146.250 ave         225 max           4 min
Histogram: 4 0 4 0 0 0 0 0 0 12
Nghost:        4046.35 ave        6291 max        2315 min
Histogram: 8 0 0 0 0 8 0 0 0 4
Neighs:        70085.2 ave      122110 max          69 min
Histogram: 4 0 4 0 0 0 3 1 0 8
FullNghs:      140170.0 ave      238698 max        1920 min
Histogram: 4 4 0 0 0 0 0 0 4 8

Total # of neighbors = 2803410
Ave neighs/atom = 958.43077
Ave special neighs/atom = 0.043076923
Neighbor list builds = 200000
Dangerous builds = 0

unfix swp
thermo_style custom step temp pe
write_data 001-dbt_3x3_${layer}L_fa_${type}_rand.data
write_data 001-dbt_3x3_21L_fa_${type}_rand.data
write_data 001-dbt_3x3_21L_fa_tet_half_rand.data
System init for write_data ...
PPPM initialization ...
  using 12-bit tables for long-range coulomb (../kspace.cpp:340)
  G vector (1/distance) = 0.29588697
  grid = 45 45 200
  stencil order = 5
  estimated absolute RMS force accuracy = 0.00034195275
  estimated relative force accuracy = 1.0297805e-06
  using double precision KISS FFT
  3d grid and FFT values/proc = 144150 77234

label minimize_temp

  variable ftemp equal v_temp

  # Minimize O-H bond
  group  immobile_1 type 1 2 3 6 7 8
2907 atoms in group immobile_1
  fix  freeze immobile_1 setforce 0.0 0.0 0.0
  minimize  1.0e-6 1.0e-9 1000 10000
PPPM initialization ...
  using 12-bit tables for long-range coulomb (../kspace.cpp:340)
  G vector (1/distance) = 0.29588697
  grid = 45 45 200
  stencil order = 5
  estimated absolute RMS force accuracy = 0.00034195275
  estimated relative force accuracy = 1.0297805e-06
  using double precision KISS FFT
  3d grid and FFT values/proc = 144150 77234
Per MPI rank memory allocation (min/avg/max) = 14.01 | 16.77 | 24.40 Mbytes
Step Temp PotEng 
  100000            0    -531044.4 
  100017            0   -531892.25 
Loop time of 0.398114 on 20 procs for 17 steps with 2925 atoms

99.3% CPU use with 20 MPI tasks x no OpenMP threads

Minimization stats:
  Stopping criterion = energy tolerance
  Energy initial, next-to-last, final = 
     -531044.401752587  -531891.991131017  -531892.251435009
  Force two-norm initial, final = 1511.5356 24.426880
  Force max component initial, final = 294.81709 12.523225
  Final line search alpha, max atom move = 0.0064227602 0.080433671
  Iterations, force evaluations = 17 26

MPI task timing breakdown:
Section |  min time  |  avg time  |  max time  |%varavg| %total
---------------------------------------------------------------
Pair    | 0.00024282 | 0.051714   | 0.090395   |  15.1 | 12.99
Bond    | 3.7414e-05 | 9.0144e-05 | 0.00022468 |   0.0 |  0.02
Kspace  | 0.29335    | 0.33222    | 0.38395    |   6.0 | 83.45
Neigh   | 0.0031277  | 0.0031996  | 0.0033388  |   0.1 |  0.80
Comm    | 0.0049706  | 0.0076027  | 0.0095134  |   1.9 |  1.91
Output  | 0          | 0          | 0          |   0.0 |  0.00
Modify  | 3.9527e-05 | 5.596e-05  | 6.8276e-05 |   0.0 |  0.01
Other   |            | 0.003227   |            |       |  0.81

Nlocal:        146.250 ave         225 max           4 min
Histogram: 4 0 4 0 0 0 0 0 0 12
Nghost:        4052.35 ave        6316 max        2320 min
Histogram: 8 0 0 0 0 8 0 0 0 4
Neighs:        70086.0 ave      122110 max          69 min
Histogram: 4 0 4 0 0 0 3 1 0 8
FullNghs:      140170.0 ave      238698 max        1920 min
Histogram: 4 4 0 0 0 0 0 0 4 8

Total # of neighbors = 2803410
Ave neighs/atom = 958.43077
Ave special neighs/atom = 0.043076923
Neighbor list builds = 1
Dangerous builds = 0
  unfix  freeze
  group immobile_1 delete

  # Minimize formate
  group  immobile_2 type 6 7 8 9 10
2889 atoms in group immobile_2
  fix  freeze immobile_2 setforce 0.0 0.0 0.0
  minimize  1.0e-6 1.0e-9 1000 10000
PPPM initialization ...
  using 12-bit tables for long-range coulomb (../kspace.cpp:340)
  G vector (1/distance) = 0.29588697
  grid = 45 45 200
  stencil order = 5
  estimated absolute RMS force accuracy = 0.00034195275
  estimated relative force accuracy = 1.0297805e-06
  using double precision KISS FFT
  3d grid and FFT values/proc = 144150 77234
Per MPI rank memory allocation (min/avg/max) = 14.01 | 16.77 | 24.40 Mbytes
Step Temp PotEng 
  100017            0   -531892.25 
  100034            0   -534059.33 
Loop time of 0.396305 on 20 procs for 17 steps with 2925 atoms

99.3% CPU use with 20 MPI tasks x no OpenMP threads

Minimization stats:
  Stopping criterion = energy tolerance
  Energy initial, next-to-last, final = 
     -531892.251435009   -534058.86271094  -534059.331601528
  Force two-norm initial, final = 2738.4433 26.693705
  Force max component initial, final = 438.71050 8.6800388
  Final line search alpha, max atom move = 0.0051774889 0.044940804
  Iterations, force evaluations = 17 26

MPI task timing breakdown:
Section |  min time  |  avg time  |  max time  |%varavg| %total
---------------------------------------------------------------
Pair    | 0.00030218 | 0.051905   | 0.090674   |  15.1 | 13.10
Bond    | 3.731e-05  | 9.2755e-05 | 0.00025516 |   0.0 |  0.02
Kspace  | 0.29158    | 0.33059    | 0.38236    |   6.1 | 83.42
Neigh   | 0.0031318  | 0.0032189  | 0.0033794  |   0.1 |  0.81
Comm    | 0.0049634  | 0.0075552  | 0.0094143  |   1.9 |  1.91
Output  | 0          | 0          | 0          |   0.0 |  0.00
Modify  | 3.9327e-05 | 5.6259e-05 | 7.4437e-05 |   0.0 |  0.01
Other   |            | 0.002892   |            |       |  0.73

Nlocal:        146.250 ave         225 max           4 min
Histogram: 4 0 4 0 0 0 0 0 0 12
Nghost:        4051.35 ave        6316 max        2315 min
Histogram: 8 0 0 0 0 8 0 0 0 4
Neighs:        70086.3 ave      122110 max          69 min
Histogram: 4 0 4 0 0 0 3 1 0 8
FullNghs:      140170.0 ave      238698 max        1920 min
Histogram: 4 4 0 0 0 0 0 0 4 8

Total # of neighbors = 2803410
Ave neighs/atom = 958.43077
Ave special neighs/atom = 0.043076923
Neighbor list builds = 1
Dangerous builds = 0
  unfix  freeze
  group immobile_2 delete

  # Electrostatic relaxation
  fix  swp fe atom/swap 1 1 ${rand} ${temp} ke no types 6 7
  fix  swp fe atom/swap 1 1 710414 ${temp} ke no types 6 7
  fix  swp fe atom/swap 1 1 710414 500000 ke no types 6 7
  thermo 1000
  thermo_style custom step v_ftemp v_cnum pe f_swp[1] f_swp[2] v_rfet3 v_rfeo3
  run ${nsteps}
  run 82944
PPPM initialization ...
  using 12-bit tables for long-range coulomb (../kspace.cpp:340)
  G vector (1/distance) = 0.29588697
  grid = 45 45 200
  stencil order = 5
  estimated absolute RMS force accuracy = 0.00034195275
  estimated relative force accuracy = 1.0297805e-06
  using double precision KISS FFT
  3d grid and FFT values/proc = 144150 77234
Per MPI rank memory allocation (min/avg/max) = 12.88 | 15.64 | 23.27 Mbytes
Step v_ftemp v_cnum PotEng f_swp[1] f_swp[2] v_rfet3 v_rfeo3 
  100034       500000          109   -534059.33            0            0         0.75         0.75 
  101000       500000          109   -533132.34          966          928   0.73333333   0.75757576 
  102000       500000          109   -533490.57         1966         1869   0.68888889   0.77777778 
  103000       500000          109   -534822.82         2966         2812   0.76666667   0.74242424 
  104000       500000          109   -534237.86         3966         3743   0.76111111   0.74494949 
  105000       500000          109   -533867.01         4966         4682   0.74444444   0.75252525 
  106000       500000          109   -534064.21         5966         5622   0.77777778   0.73737374 
  107000       500000          109   -534049.26         6966         6561   0.76111111   0.74494949 
  108000       500000          109   -532653.68         7966         7509         0.75         0.75 
  109000       500000          109   -534953.67         8966         8458   0.73333333   0.75757576 
  110000       500000          109   -531073.16         9966         9398   0.73333333   0.75757576 
  111000       500000          109   -535162.62        10966        10357   0.73333333   0.75757576 
  112000       500000          109   -534502.82        11966        11304   0.77222222   0.73989899 
  113000       500000          109    -534203.4        12966        12248   0.71666667   0.76515152 
  114000       500000          109   -533785.16        13966        13203   0.75555556   0.74747475 
  115000       500000          109   -533677.77        14966        14146   0.71666667   0.76515152 
  116000       500000          109   -533414.52        15966        15073   0.77222222   0.73989899 
  117000       500000          109   -535045.66        16966        16002   0.76111111   0.74494949 
  118000       500000          109   -535104.98        17966        16960   0.72777778   0.76010101 
  119000       500000          109   -534665.34        18966        17906   0.76666667   0.74242424 
  120000       500000          109   -533961.97        19966        18845   0.77222222   0.73989899 
  121000       500000          109   -535193.83        20966        19798   0.71111111   0.76767677 
  122000       500000          109    -533515.6        21966        20746   0.74444444   0.75252525 
  123000       500000          109   -533316.95        22966        21690   0.73888889   0.75505051 
  124000       500000          109   -533564.95        23966        22626   0.68333333   0.78030303 
  125000       500000          109    -533182.6        24966        23566   0.71666667   0.76515152 
  126000       500000          109   -534611.44        25966        24499   0.79444444   0.72979798 
  127000       500000          109   -534051.05        26966        25430   0.77222222   0.73989899 
  128000       500000          109   -532980.18        27966        26377         0.75         0.75 
  129000       500000          109   -534043.13        28966        27330   0.72777778   0.76010101 
  130000       500000          109   -533325.25        29966        28278         0.75         0.75 
  131000       500000          109   -534839.37        30966        29213   0.75555556   0.74747475 
  132000       500000          109   -533839.64        31966        30150   0.82777778   0.71464646 
  133000       500000          109   -534476.74        32966        31083   0.78333333   0.73484848 
  134000       500000          109   -533974.25        33966        32036   0.76666667   0.74242424 
  135000       500000          109   -532282.05        34966        32976   0.73333333   0.75757576 
  136000       500000          109    -532413.4        35966        33906   0.76666667   0.74242424 
  137000       500000          109   -534451.14        36966        34852   0.77222222   0.73989899 
  138000       500000          109   -534186.22        37966        35788   0.76111111   0.74494949 
  139000       500000          109   -533098.36        38966        36733   0.77222222   0.73989899 
  140000       500000          109   -533997.16        39966        37675   0.71666667   0.76515152 
  141000       500000          109   -533972.97        40966        38629   0.72777778   0.76010101 
  142000       500000          109   -531808.03        41966        39573   0.73333333   0.75757576 
  143000       500000          109   -534584.97        42966        40528   0.71111111   0.76767677 
  144000       500000          109   -531837.12        43966        41468          0.8   0.72727273 
  145000       500000          109   -534682.19        44966        42405   0.74444444   0.75252525 
  146000       500000          109   -533275.92        45966        43344   0.82222222   0.71717172 
  147000       500000          109   -534020.53        46966        44292   0.72777778   0.76010101 
  148000       500000          109   -534117.61        47966        45243   0.73888889   0.75505051 
  149000       500000          109   -533391.28        48966        46183         0.75         0.75 
  150000       500000          109   -533440.06        49966        47113   0.76111111   0.74494949 
  151000       500000          109   -534456.13        50966        48061   0.77777778   0.73737374 
  152000       500000          109   -532496.11        51966        49004   0.75555556   0.74747475 
  153000       500000          109   -535235.43        52966        49949   0.80555556   0.72474747 
  154000       500000          109   -534076.62        53966        50904   0.72777778   0.76010101 
  155000       500000          109   -534784.73        54966        51837   0.72777778   0.76010101 
  156000       500000          109   -535163.93        55966        52782   0.77777778   0.73737374 
  157000       500000          109   -533250.09        56966        53717   0.77222222   0.73989899 
  158000       500000          109   -533535.95        57966        54665   0.73888889   0.75505051 
  159000       500000          109   -531584.83        58966        55603         0.75         0.75 
  160000       500000          109   -533100.91        59966        56543   0.68888889   0.77777778 
  161000       500000          109   -533450.11        60966        57478   0.80555556   0.72474747 
  162000       500000          109   -534973.15        61966        58412   0.77777778   0.73737374 
  163000       500000          109   -533795.05        62966        59365   0.73333333   0.75757576 
  164000       500000          109   -533934.34        63966        60311   0.74444444   0.75252525 
  165000       500000          109   -532790.09        64966        61270   0.71666667   0.76515152 
  166000       500000          109   -533359.55        65966        62217   0.70555556   0.77020202 
  167000       500000          109   -534245.84        66966        63153   0.74444444   0.75252525 
  168000       500000          109   -533335.57        67966        64085   0.73888889   0.75505051 
  169000       500000          109   -531634.93        68966        65027   0.74444444   0.75252525 
  170000       500000          109   -534338.97        69966        65966   0.74444444   0.75252525 
  171000       500000          109   -533653.96        70966        66901   0.78888889   0.73232323 
  172000       500000          109   -533639.09        71966        67851   0.73888889   0.75505051 
  173000       500000          109   -533648.15        72966        68797   0.73333333   0.75757576 
  174000       500000          109   -533450.42        73966        69755   0.71666667   0.76515152 
  175000       500000          109   -535004.49        74966        70692   0.78333333   0.73484848 
  176000       500000          109   -533815.44        75966        71644   0.72222222   0.76262626 
  177000       500000          109    -534763.6        76966        72595         0.75         0.75 
  178000       500000          109   -533590.66        77966        73529   0.73888889   0.75505051 
  179000       500000          109   -534666.28        78966        74476         0.75         0.75 
  180000       500000          109   -533713.76        79966        75423   0.82777778   0.71464646 
  181000       500000          109   -534329.35        80966        76352   0.70555556   0.77020202 
  182000       500000          109   -533632.62        81966        77304   0.75555556   0.74747475 
  182978       500000          109   -535010.51        82944        78239   0.72777778   0.76010101 
Loop time of 5359.49 on 20 procs for 82944 steps with 2925 atoms

Performance: 0.669 ns/day, 35.898 hours/ns, 15.476 timesteps/s
99.3% CPU use with 20 MPI tasks x no OpenMP threads

MPI task timing breakdown:
Section |  min time  |  avg time  |  max time  |%varavg| %total
---------------------------------------------------------------
Pair    | 0.68751    | 106.38     | 186.35     | 686.3 |  1.98
Bond    | 0.063382   | 0.16818    | 0.49192    |  33.6 |  0.00
Kspace  | 932.4      | 1012.5     | 1118.5     | 223.7 | 18.89
Neigh   | 261.25     | 266.89     | 278.02     |  36.0 |  4.98
Comm    | 33.144     | 49.033     | 57.49      | 125.6 |  0.91
Output  | 0.013037   | 0.016673   | 0.024366   |   2.8 |  0.00
Modify  | 3919.2     | 3922.7     | 3927.5     |   5.3 | 73.19
Other   |            | 1.808      |            |       |  0.03

Nlocal:        146.250 ave         225 max           4 min
Histogram: 4 0 4 0 0 0 0 0 0 12
Nghost:        4051.35 ave        6316 max        2315 min
Histogram: 8 0 0 0 0 8 0 0 0 4
Neighs:        70086.6 ave      122110 max          69 min
Histogram: 4 0 4 0 0 0 3 1 0 8
FullNghs:      140170.0 ave      238698 max        1920 min
Histogram: 4 4 0 0 0 0 0 0 4 8

Total # of neighbors = 2803410
Ave neighs/atom = 958.43077
Ave special neighs/atom = 0.043076923
Neighbor list builds = 165888
Dangerous builds = 0

  variable cnum equal (${cnum}-1)
  variable cnum equal (109-1)

  unfix swp
  thermo_style custom step temp pe
  write_data  001-dbt_3x3_${layer}L_fa_${type}_${cnum}_${temp}K.data
  write_data  001-dbt_3x3_21L_fa_${type}_${cnum}_${temp}K.data
  write_data  001-dbt_3x3_21L_fa_tet_half_${cnum}_${temp}K.data
  write_data  001-dbt_3x3_21L_fa_tet_half_108_${temp}K.data
  write_data  001-dbt_3x3_21L_fa_tet_half_108_500000K.data
System init for write_data ...
PPPM initialization ...
  using 12-bit tables for long-range coulomb (../kspace.cpp:340)
  G vector (1/distance) = 0.29588697
  grid = 45 45 200
  stencil order = 5
  estimated absolute RMS force accuracy = 0.00034195275
  estimated relative force accuracy = 1.0297805e-06
  using double precision KISS FFT
  3d grid and FFT values/proc = 144150 77234

next temp
jump SELF minimize_temp

  variable ftemp equal v_temp

  # Minimize O-H bond
  group  immobile_1 type 1 2 3 6 7 8
2907 atoms in group immobile_1
  fix  freeze immobile_1 setforce 0.0 0.0 0.0
  minimize  1.0e-6 1.0e-9 1000 10000
PPPM initialization ...
  using 12-bit tables for long-range coulomb (../kspace.cpp:340)
  G vector (1/distance) = 0.29588697
  grid = 45 45 200
  stencil order = 5
  estimated absolute RMS force accuracy = 0.00034195275
  estimated relative force accuracy = 1.0297805e-06
  using double precision KISS FFT
  3d grid and FFT values/proc = 144150 77234
Per MPI rank memory allocation (min/avg/max) = 14.01 | 16.77 | 24.40 Mbytes
Step Temp PotEng 
  182978            0   -535010.51 
  182983            0    -535037.7 
Loop time of 0.147352 on 20 procs for 5 steps with 2925 atoms

99.5% CPU use with 20 MPI tasks x no OpenMP threads

Minimization stats:
  Stopping criterion = energy tolerance
  Energy initial, next-to-last, final = 
     -535010.514644616  -535037.182518069  -535037.695855396
  Force two-norm initial, final = 157.35075 31.524018
  Force max component initial, final = 57.768382 16.603942
  Final line search alpha, max atom move = 0.0085831005 0.14251331
  Iterations, force evaluations = 5 9

MPI task timing breakdown:
Section |  min time  |  avg time  |  max time  |%varavg| %total
---------------------------------------------------------------
Pair    | 0.00013628 | 0.019233   | 0.033443   |   9.2 | 13.05
Bond    | 1.3966e-05 | 3.5987e-05 | 0.0001047  |   0.0 |  0.02
Kspace  | 0.1096     | 0.12388    | 0.14306    |   3.7 | 84.07
Neigh   | 0          | 0          | 0          |   0.0 |  0.00
Comm    | 0.0017061  | 0.0026434  | 0.0033405  |   1.2 |  1.79
Output  | 0          | 0          | 0          |   0.0 |  0.00
Modify  | 1.3817e-05 | 1.9788e-05 | 2.5169e-05 |   0.0 |  0.01
Other   |            | 0.00154    |            |       |  1.05

Nlocal:        146.250 ave         225 max           4 min
Histogram: 4 0 4 0 0 0 0 0 0 12
Nghost:        4051.35 ave        6316 max        2315 min
Histogram: 8 0 0 0 0 8 0 0 0 4
Neighs:        70086.6 ave      122110 max          69 min
Histogram: 4 0 4 0 0 0 3 1 0 8
FullNghs:      140170.0 ave      238698 max        1920 min
Histogram: 4 4 0 0 0 0 0 0 4 8

Total # of neighbors = 2803410
Ave neighs/atom = 958.43077
Ave special neighs/atom = 0.043076923
Neighbor list builds = 0
Dangerous builds = 0
  unfix  freeze
  group immobile_1 delete

  # Minimize formate
  group  immobile_2 type 6 7 8 9 10
2889 atoms in group immobile_2
  fix  freeze immobile_2 setforce 0.0 0.0 0.0
  minimize  1.0e-6 1.0e-9 1000 10000
PPPM initialization ...
  using 12-bit tables for long-range coulomb (../kspace.cpp:340)
  G vector (1/distance) = 0.29588697
  grid = 45 45 200
  stencil order = 5
  estimated absolute RMS force accuracy = 0.00034195275
  estimated relative force accuracy = 1.0297805e-06
  using double precision KISS FFT
  3d grid and FFT values/proc = 144150 77234
Per MPI rank memory allocation (min/avg/max) = 14.01 | 16.77 | 24.40 Mbytes
Step Temp PotEng 
  182983            0    -535037.7 
  182993            0   -535062.06 
Loop time of 0.296629 on 20 procs for 10 steps with 2925 atoms

99.3% CPU use with 20 MPI tasks x no OpenMP threads

Minimization stats:
  Stopping criterion = energy tolerance
  Energy initial, next-to-last, final = 
     -535037.695855396  -535061.813619014  -535062.058705137
  Force two-norm initial, final = 108.29889 17.139298
  Force max component initial, final = 52.693926 7.7738331
  Final line search alpha, max atom move = 0.0043352144 0.033701234
  Iterations, force evaluations = 10 19

MPI task timing breakdown:
Section |  min time  |  avg time  |  max time  |%varavg| %total
---------------------------------------------------------------
Pair    | 0.00025449 | 0.038448   | 0.066868   |  13.0 | 12.96
Bond    | 2.5371e-05 | 6.5807e-05 | 0.00018068 |   0.0 |  0.02
Kspace  | 0.22212    | 0.25071    | 0.28906    |   5.2 | 84.52
Neigh   | 0          | 0          | 0          |   0.0 |  0.00
Comm    | 0.0033261  | 0.0051568  | 0.0065303  |   1.6 |  1.74
Output  | 0          | 0          | 0          |   0.0 |  0.00
Modify  | 2.4881e-05 | 3.7867e-05 | 5.271e-05  |   0.0 |  0.01
Other   |            | 0.002208   |            |       |  0.74

Nlocal:        146.250 ave         225 max           4 min
Histogram: 4 0 4 0 0 0 0 0 0 12
Nghost:        4051.35 ave        6316 max        2315 min
Histogram: 8 0 0 0 0 8 0 0 0 4
Neighs:        70086.4 ave      122110 max          69 min
Histogram: 4 0 4 0 0 0 3 1 0 8
FullNghs:      140170.0 ave      238698 max        1920 min
Histogram: 4 4 0 0 0 0 0 0 4 8

Total # of neighbors = 2803410
Ave neighs/atom = 958.43077
Ave special neighs/atom = 0.043076923
Neighbor list builds = 0
Dangerous builds = 0
  unfix  freeze
  group immobile_2 delete

  # Electrostatic relaxation
  fix  swp fe atom/swap 1 1 ${rand} ${temp} ke no types 6 7
  fix  swp fe atom/swap 1 1 755762 ${temp} ke no types 6 7
  fix  swp fe atom/swap 1 1 755762 450000 ke no types 6 7
  thermo 1000
  thermo_style custom step v_ftemp v_cnum pe f_swp[1] f_swp[2] v_rfet3 v_rfeo3
  run ${nsteps}
  run 82944
PPPM initialization ...
  using 12-bit tables for long-range coulomb (../kspace.cpp:340)
  G vector (1/distance) = 0.29588697
  grid = 45 45 200
  stencil order = 5
  estimated absolute RMS force accuracy = 0.00034195275
  estimated relative force accuracy = 1.0297805e-06
  using double precision KISS FFT
  3d grid and FFT values/proc = 144150 77234
Per MPI rank memory allocation (min/avg/max) = 12.88 | 15.64 | 23.27 Mbytes
Step v_ftemp v_cnum PotEng f_swp[1] f_swp[2] v_rfet3 v_rfeo3 
  182993       450000          108   -535062.06            0            0   0.76666667   0.74242424 
  183000       450000          108   -535150.44            7            6   0.77222222   0.73989899 
  184000       450000          108   -533335.53         1007          945   0.79444444   0.72979798 
  185000       450000          108   -533599.81         2007         1891   0.77777778   0.73737374 
  186000       450000          108   -533059.98         3007         2833   0.73888889   0.75505051 
  187000       450000          108   -533334.64         4007         3785   0.76111111   0.74494949 
  188000       450000          108   -532157.46         5007         4717         0.75         0.75 
  189000       450000          108   -535173.01         6007         5639   0.70555556   0.77020202 
  190000       450000          108   -535035.42         7007         6587   0.79444444   0.72979798 
  191000       450000          108    -534171.9         8007         7516   0.73333333   0.75757576 
  192000       450000          108   -535276.92         9007         8441   0.73888889   0.75505051 
  193000       450000          108   -533830.07        10007         9387   0.78333333   0.73484848 
  194000       450000          108   -535110.66        11007        10316   0.72777778   0.76010101 
  195000       450000          108   -534209.75        12007        11240         0.75         0.75 
  196000       450000          108   -532869.84        13007        12185   0.76666667   0.74242424 
  197000       450000          108   -534187.52        14007        13129          0.8   0.72727273 
  198000       450000          108   -532760.82        15007        14071   0.75555556   0.74747475 
  199000       450000          108   -533597.04        16007        15010   0.80555556   0.72474747 
  200000       450000          108    -534091.8        17007        15930   0.73333333   0.75757576 
  201000       450000          108   -535087.18        18007        16890   0.69444444   0.77525253 
  202000       450000          108   -534899.03        19007        17842          0.7   0.77272727 
  203000       450000          108   -535153.99        20007        18783         0.75         0.75 
  204000       450000          108   -533352.23        21007        19708         0.75         0.75 
  205000       450000          108   -533524.19        22007        20648   0.75555556   0.74747475 
  206000       450000          108   -533337.76        23007        21576   0.76111111   0.74494949 
  207000       450000          108   -534044.32        24007        22526         0.75         0.75 
  208000       450000          108   -533250.97        25007        23455   0.76666667   0.74242424 
  209000       450000          108   -533980.12        26007        24385         0.75         0.75 
  210000       450000          108   -533605.89        27007        25327   0.73888889   0.75505051 
  211000       450000          108    -533266.2        28007        26268   0.72222222   0.76262626 
  212000       450000          108   -535643.65        29007        27198   0.70555556   0.77020202 
  213000       450000          108   -533717.95        30007        28137         0.75         0.75 
  214000       450000          108   -535256.58        31007        29063   0.75555556   0.74747475 
  215000       450000          108   -533841.54        32007        30004   0.77222222   0.73989899 
  216000       450000          108   -533756.91        33007        30944   0.73333333   0.75757576 
  217000       450000          108   -534659.03        34007        31884   0.71666667   0.76515152 
  218000       450000          108   -533321.36        35007        32817   0.75555556   0.74747475 
  219000       450000          108   -535534.09        36007        33766          0.8   0.72727273 
  220000       450000          108   -535787.52        37007        34699         0.75         0.75 
  221000       450000          108   -534838.78        38007        35633   0.78333333   0.73484848 
  222000       450000          108   -533946.67        39007        36565   0.73888889   0.75505051 
  223000       450000          108   -534822.32        40007        37515         0.75         0.75 
  224000       450000          108   -534042.86        41007        38460   0.68333333   0.78030303 
  225000       450000          108   -532216.95        42007        39400   0.76111111   0.74494949 
  226000       450000          108   -534550.11        43007        40338         0.75         0.75 
  227000       450000          108   -533427.34        44007        41270   0.78333333   0.73484848 
  228000       450000          108   -533870.84        45007        42216   0.77777778   0.73737374 
  229000       450000          108   -534029.03        46007        43150   0.79444444   0.72979798 
  230000       450000          108   -534568.14        47007        44095   0.78888889   0.73232323 
  231000       450000          108   -534206.83        48007        45028   0.72777778   0.76010101 
  232000       450000          108   -533266.02        49007        45965   0.78333333   0.73484848 
  233000       450000          108   -533361.66        50007        46890   0.77777778   0.73737374 
  234000       450000          108      -535001        51007        47811   0.72777778   0.76010101 
  235000       450000          108   -534123.52        52007        48759   0.78333333   0.73484848 
  236000       450000          108   -534586.41        53007        49697   0.76666667   0.74242424 
  237000       450000          108   -534779.43        54007        50637   0.75555556   0.74747475 
  238000       450000          108   -532632.71        55007        51576         0.75         0.75 
  239000       450000          108   -535317.45        56007        52515   0.74444444   0.75252525 
  240000       450000          108   -534312.63        57007        53465   0.74444444   0.75252525 
  241000       450000          108   -533984.72        58007        54390   0.73888889   0.75505051 
  242000       450000          108    -534753.7        59007        55323   0.73888889   0.75505051 
  243000       450000          108   -534072.62        60007        56258   0.77777778   0.73737374 
  244000       450000          108   -534442.51        61007        57197   0.77222222   0.73989899 
  245000       450000          108   -533812.04        62007        58128   0.72777778   0.76010101 
  246000       450000          108   -532477.03        63007        59071   0.72777778   0.76010101 
  247000       450000          108   -533758.89        64007        60010   0.74444444   0.75252525 
  248000       450000          108   -533579.08        65007        60949   0.71666667   0.76515152 
  249000       450000          108   -534419.53        66007        61872   0.75555556   0.74747475 
  250000       450000          108   -534033.61        67007        62826         0.75         0.75 
  251000       450000          108   -534137.26        68007        63761   0.69444444   0.77525253 
  252000       450000          108   -533807.98        69007        64687   0.73333333   0.75757576 
  253000       450000          108   -532106.59        70007        65641   0.71666667   0.76515152 
  254000       450000          108   -534346.48        71007        66568   0.72777778   0.76010101 
  255000       450000          108    -534426.7        72007        67508   0.74444444   0.75252525 
  256000       450000          108   -534507.47        73007        68439   0.80555556   0.72474747 
  257000       450000          108   -535217.71        74007        69379   0.71666667   0.76515152 
  258000       450000          108   -534822.88        75007        70322   0.77222222   0.73989899 
  259000       450000          108      -534620        76007        71265   0.72777778   0.76010101 
  260000       450000          108   -533357.03        77007        72199   0.73888889   0.75505051 
  261000       450000          108   -532190.09        78007        73136   0.76111111   0.74494949 
  262000       450000          108   -535257.55        79007        74069   0.77222222   0.73989899 
  263000       450000          108    -534511.2        80007        75005   0.72777778   0.76010101 
  264000       450000          108   -532888.01        81007        75942   0.73333333   0.75757576 
  265000       450000          108   -533976.05        82007        76886   0.78333333   0.73484848 
  265937       450000          108   -534329.72        82944        77764   0.71666667   0.76515152 
Loop time of 5360.14 on 20 procs for 82944 steps with 2925 atoms

Performance: 0.668 ns/day, 35.902 hours/ns, 15.474 timesteps/s
99.4% CPU use with 20 MPI tasks x no OpenMP threads

MPI task timing breakdown:
Section |  min time  |  avg time  |  max time  |%varavg| %total
---------------------------------------------------------------
Pair    | 0.74617    | 106.44     | 186.11     | 686.7 |  1.99
Bond    | 0.06166    | 0.17335    | 0.51902    |  34.8 |  0.00
Kspace  | 932.21     | 1011.9     | 1117.9     | 223.9 | 18.88
Neigh   | 261.59     | 267.21     | 278.43     |  36.5 |  4.99
Comm    | 33.309     | 49.38      | 58.083     | 126.2 |  0.92
Output  | 0.015241   | 0.0191     | 0.026838   |   2.7 |  0.00
Modify  | 3919.7     | 3923.2     | 3928       |   5.3 | 73.19
Other   |            | 1.795      |            |       |  0.03

Nlocal:        146.250 ave         225 max           4 min
Histogram: 4 0 4 0 0 0 0 0 0 12
Nghost:        4051.35 ave        6316 max        2315 min
Histogram: 8 0 0 0 0 8 0 0 0 4
Neighs:        70085.1 ave      122110 max          69 min
Histogram: 4 0 4 0 0 0 3 1 0 8
FullNghs:      140170.0 ave      238698 max        1920 min
Histogram: 4 4 0 0 0 0 0 0 4 8

Total # of neighbors = 2803410
Ave neighs/atom = 958.43077
Ave special neighs/atom = 0.043076923
Neighbor list builds = 165888
Dangerous builds = 0

  variable cnum equal (${cnum}-1)
  variable cnum equal (108-1)

  unfix swp
  thermo_style custom step temp pe
  write_data  001-dbt_3x3_${layer}L_fa_${type}_${cnum}_${temp}K.data
  write_data  001-dbt_3x3_21L_fa_${type}_${cnum}_${temp}K.data
  write_data  001-dbt_3x3_21L_fa_tet_half_${cnum}_${temp}K.data
  write_data  001-dbt_3x3_21L_fa_tet_half_107_${temp}K.data
  write_data  001-dbt_3x3_21L_fa_tet_half_107_450000K.data
System init for write_data ...
PPPM initialization ...
  using 12-bit tables for long-range coulomb (../kspace.cpp:340)
  G vector (1/distance) = 0.29588697
  grid = 45 45 200
  stencil order = 5
  estimated absolute RMS force accuracy = 0.00034195275
  estimated relative force accuracy = 1.0297805e-06
  using double precision KISS FFT
  3d grid and FFT values/proc = 144150 77234

next temp
jump SELF minimize_temp

  variable ftemp equal v_temp

  # Minimize O-H bond
  group  immobile_1 type 1 2 3 6 7 8
2907 atoms in group immobile_1
  fix  freeze immobile_1 setforce 0.0 0.0 0.0
  minimize  1.0e-6 1.0e-9 1000 10000
PPPM initialization ...
  using 12-bit tables for long-range coulomb (../kspace.cpp:340)
  G vector (1/distance) = 0.29588697
  grid = 45 45 200
  stencil order = 5
  estimated absolute RMS force accuracy = 0.00034195275
  estimated relative force accuracy = 1.0297805e-06
  using double precision KISS FFT
  3d grid and FFT values/proc = 144150 77234
Per MPI rank memory allocation (min/avg/max) = 14.01 | 16.77 | 24.40 Mbytes
Step Temp PotEng 
  265937            0   -534329.72 
  265942            0   -534357.07 
Loop time of 0.16149 on 20 procs for 5 steps with 2925 atoms

99.3% CPU use with 20 MPI tasks x no OpenMP threads

Minimization stats:
  Stopping criterion = energy tolerance
  Energy initial, next-to-last, final = 
     -534329.718633828  -534356.676105912  -534357.066892319
  Force two-norm initial, final = 172.82025 30.417223
  Force max component initial, final = 73.812968 14.539783
  Final line search alpha, max atom move = 0.014371340 0.20895618
  Iterations, force evaluations = 5 10

MPI task timing breakdown:
Section |  min time  |  avg time  |  max time  |%varavg| %total
---------------------------------------------------------------
Pair    | 0.00015087 | 0.021163   | 0.03678    |   9.7 | 13.10
Bond    | 1.5919e-05 | 3.7699e-05 | 0.00011009 |   0.0 |  0.02
Kspace  | 0.12014    | 0.13584    | 0.15694    |   3.9 | 84.12
Neigh   | 0          | 0          | 0          |   0.0 |  0.00
Comm    | 0.0018632  | 0.002847   | 0.003586   |   1.2 |  1.76
Output  | 0          | 0          | 0          |   0.0 |  0.00
Modify  | 1.5003e-05 | 2.1622e-05 | 2.5976e-05 |   0.0 |  0.01
Other   |            | 0.001577   |            |       |  0.98

Nlocal:        146.250 ave         225 max           4 min
Histogram: 4 0 4 0 0 0 0 0 0 12
Nghost:        4051.35 ave        6316 max        2315 min
Histogram: 8 0 0 0 0 8 0 0 0 4
Neighs:        70085.1 ave      122110 max          69 min
Histogram: 4 0 4 0 0 0 3 1 0 8
FullNghs:      140170.0 ave      238698 max        1920 min
Histogram: 4 4 0 0 0 0 0 0 4 8

Total # of neighbors = 2803410
Ave neighs/atom = 958.43077
Ave special neighs/atom = 0.043076923
Neighbor list builds = 0
Dangerous builds = 0
  unfix  freeze
  group immobile_1 delete

  # Minimize formate
  group  immobile_2 type 6 7 8 9 10
2889 atoms in group immobile_2
  fix  freeze immobile_2 setforce 0.0 0.0 0.0
  minimize  1.0e-6 1.0e-9 1000 10000
PPPM initialization ...
  using 12-bit tables for long-range coulomb (../kspace.cpp:340)
  G vector (1/distance) = 0.29588697
  grid = 45 45 200
  stencil order = 5
  estimated absolute RMS force accuracy = 0.00034195275
  estimated relative force accuracy = 1.0297805e-06
  using double precision KISS FFT
  3d grid and FFT values/proc = 144150 77234
Per MPI rank memory allocation (min/avg/max) = 14.01 | 16.77 | 24.40 Mbytes
Step Temp PotEng 
  265942            0   -534357.07 
  265953            0   -534376.82 
Loop time of 0.336364 on 20 procs for 11 steps with 2925 atoms

99.1% CPU use with 20 MPI tasks x no OpenMP threads

Minimization stats:
  Stopping criterion = energy tolerance
  Energy initial, next-to-last, final = 
     -534357.066892319  -534376.512428816  -534376.820683567
  Force two-norm initial, final = 98.039948 29.472487
  Force max component initial, final = 43.027841 13.647989
  Final line search alpha, max atom move = 0.0091836958 0.12533898
  Iterations, force evaluations = 11 21

MPI task timing breakdown:
Section |  min time  |  avg time  |  max time  |%varavg| %total
---------------------------------------------------------------
Pair    | 0.00030936 | 0.042376   | 0.073192   |  13.6 | 12.60
Bond    | 2.9677e-05 | 7.4093e-05 | 0.00020045 |   0.0 |  0.02
Kspace  | 0.25429    | 0.28519    | 0.32735    |   5.3 | 84.79
Neigh   | 0          | 0          | 0          |   0.0 |  0.00
Comm    | 0.0040262  | 0.0062519  | 0.0080471  |   1.7 |  1.86
Output  | 0          | 0          | 0          |   0.0 |  0.00
Modify  | 2.896e-05  | 4.487e-05  | 5.4659e-05 |   0.0 |  0.01
Other   |            | 0.002424   |            |       |  0.72

Nlocal:        146.250 ave         225 max           4 min
Histogram: 4 0 4 0 0 0 0 0 0 12
Nghost:        4051.35 ave        6316 max        2315 min
Histogram: 8 0 0 0 0 8 0 0 0 4
Neighs:        70084.3 ave      122110 max          69 min
Histogram: 4 0 4 0 0 0 3 1 0 8
FullNghs:      140170.0 ave      238698 max        1920 min
Histogram: 4 4 0 0 0 0 0 0 4 8

Total # of neighbors = 2803410
Ave neighs/atom = 958.43077
Ave special neighs/atom = 0.043076923
Neighbor list builds = 0
Dangerous builds = 0
  unfix  freeze
  group immobile_2 delete

  # Electrostatic relaxation
  fix  swp fe atom/swap 1 1 ${rand} ${temp} ke no types 6 7
  fix  swp fe atom/swap 1 1 4574249 ${temp} ke no types 6 7
  fix  swp fe atom/swap 1 1 4574249 405000 ke no types 6 7
  thermo 1000
  thermo_style custom step v_ftemp v_cnum pe f_swp[1] f_swp[2] v_rfet3 v_rfeo3
  run ${nsteps}
  run 82944
PPPM initialization ...
  using 12-bit tables for long-range coulomb (../kspace.cpp:340)
  G vector (1/distance) = 0.29588697
  grid = 45 45 200
  stencil order = 5
  estimated absolute RMS force accuracy = 0.00034195275
  estimated relative force accuracy = 1.0297805e-06
  using double precision KISS FFT
  3d grid and FFT values/proc = 144150 77234
Per MPI rank memory allocation (min/avg/max) = 12.88 | 15.64 | 23.27 Mbytes
Step v_ftemp v_cnum PotEng f_swp[1] f_swp[2] v_rfet3 v_rfeo3 
  265953       405000          107   -534376.82            0            0   0.73888889   0.75505051 
  266000       405000          107   -534609.51           47           42         0.75         0.75 
  267000       405000          107   -533257.75         1047          960   0.74444444   0.75252525 
  268000       405000          107   -534502.62         2047         1916   0.76666667   0.74242424 
  269000       405000          107      -534060         3047         2846   0.76111111   0.74494949 
  270000       405000          107   -533852.92         4047         3792   0.78333333   0.73484848 
  271000       405000          107   -535338.85         5047         4721   0.78888889   0.73232323 
  272000       405000          107   -535102.15         6047         5656   0.75555556   0.74747475 
  273000       405000          107   -532689.48         7047         6582         0.75         0.75 
  274000       405000          107    -532971.6         8047         7513   0.77777778   0.73737374 
  275000       405000          107   -534689.72         9047         8462   0.73333333   0.75757576 
  276000       405000          107   -533925.69        10047         9387   0.76111111   0.74494949 
  277000       405000          107    -533619.7        11047        10309   0.75555556   0.74747475 
  278000       405000          107   -532203.64        12047        11217   0.72222222   0.76262626 
  279000       405000          107   -534214.94        13047        12153   0.72222222   0.76262626 
  280000       405000          107   -532658.98        14047        13080          0.8   0.72727273 
  281000       405000          107   -533653.51        15047        14017   0.72222222   0.76262626 
  282000       405000          107   -534298.76        16047        14956   0.76111111   0.74494949 
  283000       405000          107   -534894.74        17047        15867   0.81111111   0.72222222 
  284000       405000          107   -533307.86        18047        16793   0.71666667   0.76515152 
  285000       405000          107   -535545.62        19047        17723   0.73333333   0.75757576 
  286000       405000          107   -533769.83        20047        18659   0.71666667   0.76515152 
  287000       405000          107   -533681.55        21047        19583   0.73888889   0.75505051 
  288000       405000          107   -533739.65        22047        20515   0.76666667   0.74242424 
  289000       405000          107   -534522.63        23047        21444   0.77222222   0.73989899 
  290000       405000          107   -533457.35        24047        22378   0.73888889   0.75505051 
  291000       405000          107   -533825.85        25047        23325   0.81666667   0.71969697 
  292000       405000          107   -535713.32        26047        24267         0.75         0.75 
  293000       405000          107   -534121.88        27047        25207   0.77222222   0.73989899 
  294000       405000          107   -534276.08        28047        26136   0.78888889   0.73232323 
  295000       405000          107   -534124.45        29047        27076   0.79444444   0.72979798 
  296000       405000          107   -534307.53        30047        28014   0.76111111   0.74494949 
  297000       405000          107    -533302.5        31047        28946   0.78333333   0.73484848 
  298000       405000          107   -533429.43        32047        29865   0.71111111   0.76767677 
  299000       405000          107   -534251.74        33047        30797   0.76666667   0.74242424 
  300000       405000          107   -531230.01        34047        31709   0.77222222   0.73989899 
  301000       405000          107    -531998.6        35047        32626   0.76666667   0.74242424 
  302000       405000          107   -534254.68        36047        33567         0.75         0.75 
  303000       405000          107   -534951.07        37047        34503   0.73888889   0.75505051 
  304000       405000          107   -535341.82        38047        35443   0.74444444   0.75252525 
  305000       405000          107    -534390.9        39047        36370   0.78333333   0.73484848 
  306000       405000          107   -534021.82        40047        37282   0.73333333   0.75757576 
  307000       405000          107   -532812.17        41047        38217   0.74444444   0.75252525 
  308000       405000          107   -534319.18        42047        39144   0.75555556   0.74747475 
  309000       405000          107    -533838.4        43047        40076   0.72777778   0.76010101 
  310000       405000          107   -534877.56        44047        41005   0.77777778   0.73737374 
  311000       405000          107   -534886.69        45047        41924   0.77777778   0.73737374 
  312000       405000          107   -534851.76        46047        42860   0.71111111   0.76767677 
  313000       405000          107   -534615.83        47047        43792   0.76111111   0.74494949 
  314000       405000          107   -534293.66        48047        44740   0.71666667   0.76515152 
  315000       405000          107   -535026.59        49047        45679   0.77222222   0.73989899 
  316000       405000          107   -533456.16        50047        46622   0.67777778   0.78282828 
  317000       405000          107   -532911.74        51047        47553   0.72222222   0.76262626 
  318000       405000          107   -535392.16        52047        48489   0.75555556   0.74747475 
  319000       405000          107   -535615.85        53047        49416   0.73888889   0.75505051 
  320000       405000          107   -534915.18        54047        50338          0.8   0.72727273 
  321000       405000          107   -534896.99        55047        51270   0.71111111   0.76767677 
  322000       405000          107   -534209.36        56047        52210   0.77222222   0.73989899 
  323000       405000          107   -534378.75        57047        53150   0.77222222   0.73989899 
  324000       405000          107   -533897.39        58047        54100   0.78333333   0.73484848 
  325000       405000          107   -533696.83        59047        55026   0.71111111   0.76767677 
  326000       405000          107   -534938.84        60047        55956         0.75         0.75 
  327000       405000          107   -534430.92        61047        56896   0.73888889   0.75505051 
  328000       405000          107   -535023.11        62047        57842   0.72777778   0.76010101 
  329000       405000          107    -534337.4        63047        58787   0.73333333   0.75757576 
  330000       405000          107   -533752.32        64047        59723   0.72222222   0.76262626 
  331000       405000          107   -534483.15        65047        60638   0.73333333   0.75757576 
  332000       405000          107   -534578.27        66047        61565   0.75555556   0.74747475 
  333000       405000          107   -534557.27        67047        62487   0.72777778   0.76010101 
  334000       405000          107   -534768.76        68047        63419          0.7   0.77272727 
  335000       405000          107   -533815.96        69047        64341   0.74444444   0.75252525 
  336000       405000          107   -534268.08        70047        65263   0.77222222   0.73989899 
  337000       405000          107   -534122.25        71047        66198         0.75         0.75 
  338000       405000          107   -533883.12        72047        67135   0.70555556   0.77020202 
  339000       405000          107   -533241.44        73047        68060   0.78888889   0.73232323 
  340000       405000          107   -532965.39        74047        68976         0.75         0.75 
  341000       405000          107   -533350.05        75047        69904         0.75         0.75 
  342000       405000          107   -535363.54        76047        70832   0.77777778   0.73737374 
  343000       405000          107   -532974.82        77047        71768   0.74444444   0.75252525 
  344000       405000          107   -534463.26        78047        72702   0.73888889   0.75505051 
  345000       405000          107   -533890.32        79047        73642   0.76111111   0.74494949 
  346000       405000          107   -534990.68        80047        74572   0.72777778   0.76010101 
  347000       405000          107   -535417.65        81047        75515   0.72777778   0.76010101 
  348000       405000          107   -535360.48        82047        76447   0.78333333   0.73484848 
  348897       405000          107   -533049.56        82944        77286   0.73333333   0.75757576 
Loop time of 5382.87 on 20 procs for 82944 steps with 2925 atoms

Performance: 0.666 ns/day, 36.054 hours/ns, 15.409 timesteps/s
99.4% CPU use with 20 MPI tasks x no OpenMP threads

MPI task timing breakdown:
Section |  min time  |  avg time  |  max time  |%varavg| %total
---------------------------------------------------------------
Pair    | 0.71539    | 105.99     | 185.59     | 685.4 |  1.97
Bond    | 0.061793   | 0.16121    | 0.42082    |  31.1 |  0.00
Kspace  | 941.84     | 1021.5     | 1127.2     | 222.0 | 18.98
Neigh   | 260.64     | 266.25     | 277.47     |  36.4 |  4.95
Comm    | 33.123     | 49.192     | 57.943     | 125.9 |  0.91
Output  | 0.013096   | 0.016758   | 0.02424    |   2.7 |  0.00
Modify  | 3934.4     | 3938       | 3942.8     |   5.3 | 73.16
Other   |            | 1.822      |            |       |  0.03

Nlocal:        146.250 ave         225 max           4 min
Histogram: 4 0 4 0 0 0 0 0 0 12
Nghost:        4051.35 ave        6316 max        2315 min
Histogram: 8 0 0 0 0 8 0 0 0 4
Neighs:        70084.6 ave      122110 max          69 min
Histogram: 4 0 4 0 0 0 3 1 0 8
FullNghs:      140170.0 ave      238698 max        1920 min
Histogram: 4 4 0 0 0 0 0 0 4 8

Total # of neighbors = 2803410
Ave neighs/atom = 958.43077
Ave special neighs/atom = 0.043076923
Neighbor list builds = 165888
Dangerous builds = 0

  variable cnum equal (${cnum}-1)
  variable cnum equal (107-1)

  unfix swp
  thermo_style custom step temp pe
  write_data  001-dbt_3x3_${layer}L_fa_${type}_${cnum}_${temp}K.data
  write_data  001-dbt_3x3_21L_fa_${type}_${cnum}_${temp}K.data
  write_data  001-dbt_3x3_21L_fa_tet_half_${cnum}_${temp}K.data
  write_data  001-dbt_3x3_21L_fa_tet_half_106_${temp}K.data
  write_data  001-dbt_3x3_21L_fa_tet_half_106_405000K.data
System init for write_data ...
PPPM initialization ...
  using 12-bit tables for long-range coulomb (../kspace.cpp:340)
  G vector (1/distance) = 0.29588697
  grid = 45 45 200
  stencil order = 5
  estimated absolute RMS force accuracy = 0.00034195275
  estimated relative force accuracy = 1.0297805e-06
  using double precision KISS FFT
  3d grid and FFT values/proc = 144150 77234

next temp
jump SELF minimize_temp

  variable ftemp equal v_temp

  # Minimize O-H bond
  group  immobile_1 type 1 2 3 6 7 8
2907 atoms in group immobile_1
  fix  freeze immobile_1 setforce 0.0 0.0 0.0
  minimize  1.0e-6 1.0e-9 1000 10000
PPPM initialization ...
  using 12-bit tables for long-range coulomb (../kspace.cpp:340)
  G vector (1/distance) = 0.29588697
  grid = 45 45 200
  stencil order = 5
  estimated absolute RMS force accuracy = 0.00034195275
  estimated relative force accuracy = 1.0297805e-06
  using double precision KISS FFT
  3d grid and FFT values/proc = 144150 77234
Per MPI rank memory allocation (min/avg/max) = 14.01 | 16.77 | 24.40 Mbytes
Step Temp PotEng 
  348897            0   -533049.56 
  348902            0   -533064.56 
Loop time of 0.162668 on 20 procs for 5 steps with 2925 atoms

99.3% CPU use with 20 MPI tasks x no OpenMP threads

Minimization stats:
  Stopping criterion = energy tolerance
  Energy initial, next-to-last, final = 
     -533049.555837078  -533064.258094662  -533064.555401435
  Force two-norm initial, final = 134.60408 20.529658
  Force max component initial, final = 72.197648 8.3981915
  Final line search alpha, max atom move = 0.0095234830 0.079980034
  Iterations, force evaluations = 5 10

MPI task timing breakdown:
Section |  min time  |  avg time  |  max time  |%varavg| %total
---------------------------------------------------------------
Pair    | 0.00014713 | 0.021069   | 0.036635   |   9.6 | 12.95
Bond    | 1.4003e-05 | 3.6035e-05 | 9.5135e-05 |   0.0 |  0.02
Kspace  | 0.12145    | 0.13709    | 0.15808    |   3.8 | 84.28
Neigh   | 0          | 0          | 0          |   0.0 |  0.00
Comm    | 0.0018461  | 0.0028566  | 0.0036199  |   1.2 |  1.76
Output  | 0          | 0          | 0          |   0.0 |  0.00
Modify  | 1.579e-05  | 2.2767e-05 | 2.9816e-05 |   0.0 |  0.01
Other   |            | 0.001589   |            |       |  0.98

Nlocal:        146.250 ave         225 max           4 min
Histogram: 4 0 4 0 0 0 0 0 0 12
Nghost:        4051.35 ave        6316 max        2315 min
Histogram: 8 0 0 0 0 8 0 0 0 4
Neighs:        70084.6 ave      122110 max          69 min
Histogram: 4 0 4 0 0 0 3 1 0 8
FullNghs:      140170.0 ave      238698 max        1920 min
Histogram: 4 4 0 0 0 0 0 0 4 8

Total # of neighbors = 2803410
Ave neighs/atom = 958.43077
Ave special neighs/atom = 0.043076923
Neighbor list builds = 0
Dangerous builds = 0
  unfix  freeze
  group immobile_1 delete

  # Minimize formate
  group  immobile_2 type 6 7 8 9 10
2889 atoms in group immobile_2
  fix  freeze immobile_2 setforce 0.0 0.0 0.0
  minimize  1.0e-6 1.0e-9 1000 10000
PPPM initialization ...
  using 12-bit tables for long-range coulomb (../kspace.cpp:340)
  G vector (1/distance) = 0.29588697
  grid = 45 45 200
  stencil order = 5
  estimated absolute RMS force accuracy = 0.00034195275
  estimated relative force accuracy = 1.0297805e-06
  using double precision KISS FFT
  3d grid and FFT values/proc = 144150 77234
Per MPI rank memory allocation (min/avg/max) = 14.01 | 16.77 | 24.40 Mbytes
Step Temp PotEng 
  348902            0   -533064.56 
  348928            0   -533127.83 
Loop time of 0.727388 on 20 procs for 26 steps with 2925 atoms

99.3% CPU use with 20 MPI tasks x no OpenMP threads

Minimization stats:
  Stopping criterion = energy tolerance
  Energy initial, next-to-last, final = 
     -533064.555401435  -533127.475823604  -533127.828422568
  Force two-norm initial, final = 99.688750 29.005342
  Force max component initial, final = 37.658790 9.7238273
  Final line search alpha, max atom move = 0.0028974348 0.028174156
  Iterations, force evaluations = 26 48

MPI task timing breakdown:
Section |  min time  |  avg time  |  max time  |%varavg| %total
---------------------------------------------------------------
Pair    | 0.00062816 | 0.093964   | 0.1632     |  20.4 | 12.92
Bond    | 6.2929e-05 | 0.00016306 | 0.00044129 |   0.0 |  0.02
Kspace  | 0.54258    | 0.61215    | 0.70583    |   8.1 | 84.16
Neigh   | 0.00313    | 0.0032152  | 0.0033567  |   0.1 |  0.44
Comm    | 0.0084385  | 0.013247   | 0.016733   |   2.6 |  1.82
Output  | 0          | 0          | 0          |   0.0 |  0.00
Modify  | 6.4261e-05 | 9.99e-05   | 0.00012967 |   0.0 |  0.01
Other   |            | 0.004549   |            |       |  0.63

Nlocal:        146.250 ave         225 max           4 min
Histogram: 4 0 4 0 0 0 0 0 0 12
Nghost:        4051.35 ave        6316 max        2315 min
Histogram: 8 0 0 0 0 8 0 0 0 4
Neighs:        70083.2 ave      122110 max          69 min
Histogram: 4 0 4 0 0 0 3 1 0 8
FullNghs:      140170.0 ave      238698 max        1920 min
Histogram: 4 4 0 0 0 0 0 0 4 8

Total # of neighbors = 2803410
Ave neighs/atom = 958.43077
Ave special neighs/atom = 0.043076923
Neighbor list builds = 1
Dangerous builds = 0
  unfix  freeze
  group immobile_2 delete

  # Electrostatic relaxation
  fix  swp fe atom/swap 1 1 ${rand} ${temp} ke no types 6 7
  fix  swp fe atom/swap 1 1 5979850 ${temp} ke no types 6 7
  fix  swp fe atom/swap 1 1 5979850 364500 ke no types 6 7
  thermo 1000
  thermo_style custom step v_ftemp v_cnum pe f_swp[1] f_swp[2] v_rfet3 v_rfeo3
  run ${nsteps}
  run 82944
PPPM initialization ...
  using 12-bit tables for long-range coulomb (../kspace.cpp:340)
  G vector (1/distance) = 0.29588697
  grid = 45 45 200
  stencil order = 5
  estimated absolute RMS force accuracy = 0.00034195275
  estimated relative force accuracy = 1.0297805e-06
  using double precision KISS FFT
  3d grid and FFT values/proc = 144150 77234
Per MPI rank memory allocation (min/avg/max) = 12.88 | 15.64 | 23.27 Mbytes
Step v_ftemp v_cnum PotEng f_swp[1] f_swp[2] v_rfet3 v_rfeo3 
  348928       364500          106   -533127.83            0            0   0.76666667   0.74242424 
  349000       364500          106   -532915.21           72           71   0.75555556   0.74747475 
  350000       364500          106   -534093.85         1072         1002   0.76666667   0.74242424 
  351000       364500          106   -533820.27         2072         1929   0.72222222   0.76262626 
  352000       364500          106   -534226.32         3072         2839   0.73333333   0.75757576 
  353000       364500          106   -533941.76         4072         3778   0.73333333   0.75757576 
  354000       364500          106   -534217.58         5072         4708   0.81111111   0.72222222 
  355000       364500          106   -533111.69         6072         5639         0.75         0.75 
  356000       364500          106   -533388.57         7072         6557   0.76111111   0.74494949 
  357000       364500          106   -533563.75         8072         7502   0.76111111   0.74494949 
  358000       364500          106   -533417.27         9072         8449         0.75         0.75 
  359000       364500          106   -533723.99        10072         9374   0.75555556   0.74747475 
  360000       364500          106   -534836.11        11072        10318   0.73333333   0.75757576 
  361000       364500          106   -533264.34        12072        11246   0.73888889   0.75505051 
  362000       364500          106   -533647.33        13072        12181   0.77222222   0.73989899 
  363000       364500          106   -535628.78        14072        13107   0.76111111   0.74494949 
  364000       364500          106    -534302.2        15072        14045   0.73333333   0.75757576 
  365000       364500          106   -532088.87        16072        14980   0.75555556   0.74747475 
  366000       364500          106   -533062.54        17072        15900         0.75         0.75 
  367000       364500          106   -534287.09        18072        16827   0.72222222   0.76262626 
  368000       364500          106   -532867.34        19072        17770   0.72777778   0.76010101 
  369000       364500          106   -533804.81        20072        18696   0.77222222   0.73989899 
  370000       364500          106   -533788.93        21072        19609   0.73333333   0.75757576 
  371000       364500          106   -535255.31        22072        20539   0.72222222   0.76262626 
  372000       364500          106   -534825.66        23072        21472   0.73888889   0.75505051 
  373000       364500          106   -535153.04        24072        22398   0.78333333   0.73484848 
  374000       364500          106   -534768.76        25072        23341   0.72222222   0.76262626 
  375000       364500          106   -532087.76        26072        24256   0.72222222   0.76262626 
  376000       364500          106   -534138.82        27072        25168   0.72777778   0.76010101 
  377000       364500          106   -533754.24        28072        26113   0.78333333   0.73484848 
  378000       364500          106   -532977.79        29072        27034   0.74444444   0.75252525 
  379000       364500          106   -535488.19        30072        27964   0.75555556   0.74747475 
  380000       364500          106    -534974.2        31072        28887   0.77777778   0.73737374 
  381000       364500          106   -534297.95        32072        29830         0.75         0.75 
  382000       364500          106   -533518.94        33072        30767   0.73333333   0.75757576 
  383000       364500          106   -534940.65        34072        31705   0.78888889   0.73232323 
  384000       364500          106    -536138.4        35072        32625   0.74444444   0.75252525 
  385000       364500          106   -533142.14        36072        33536   0.76666667   0.74242424 
  386000       364500          106   -533248.63        37072        34458   0.73888889   0.75505051 
  387000       364500          106      -532715        38072        35389          0.7   0.77272727 
  388000       364500          106   -534815.49        39072        36321   0.73888889   0.75505051 
  389000       364500          106   -534220.28        40072        37247   0.73333333   0.75757576 
  390000       364500          106   -534341.05        41072        38171   0.74444444   0.75252525 
  391000       364500          106   -533922.15        42072        39112         0.75         0.75 
  392000       364500          106   -534579.56        43072        40029          0.7   0.77272727 
  393000       364500          106   -533203.58        44072        40952   0.77222222   0.73989899 
  394000       364500          106    -534412.9        45072        41867   0.71666667   0.76515152 
  395000       364500          106   -533666.74        46072        42787   0.71666667   0.76515152 
  396000       364500          106   -533895.27        47072        43726   0.77777778   0.73737374 
  397000       364500          106   -532943.24        48072        44663   0.77222222   0.73989899 
  398000       364500          106   -534107.44        49072        45577   0.71666667   0.76515152 
  399000       364500          106   -533507.46        50072        46516   0.76111111   0.74494949 
  400000       364500          106   -534923.94        51072        47435   0.74444444   0.75252525 
  401000       364500          106   -533651.51        52072        48363   0.77222222   0.73989899 
  402000       364500          106   -534151.23        53072        49278   0.77222222   0.73989899 
  403000       364500          106   -535569.06        54072        50196   0.74444444   0.75252525 
  404000       364500          106   -534821.36        55072        51124   0.74444444   0.75252525 
  405000       364500          106   -534090.04        56072        52061   0.76666667   0.74242424 
  406000       364500          106    -534554.4        57072        52975   0.77222222   0.73989899 
  407000       364500          106   -535237.89        58072        53883   0.69444444   0.77525253 
  408000       364500          106   -534834.53        59072        54798   0.80555556   0.72474747 
  409000       364500          106   -535075.01        60072        55719   0.77777778   0.73737374 
  410000       364500          106   -534802.16        61072        56654   0.81111111   0.72222222 
  411000       364500          106   -533879.09        62072        57576   0.76666667   0.74242424 
  412000       364500          106      -533928        63072        58501   0.76666667   0.74242424 
  413000       364500          106    -534139.3        64072        59418   0.75555556   0.74747475 
[...]
 9052000            2            2    -539337.9        76211            0            1   0.63636364 
 9053000            2            2    -539337.9        77211            0            1   0.63636364 
 9054000            2            2    -539337.9        78211            0            1   0.63636364 
 9055000            2            2    -539337.9        79211            0            1   0.63636364 
 9056000            2            2    -539337.9        80211            0            1   0.63636364 
 9057000            2            2    -539337.9        81211            0            1   0.63636364 
 9058000            2            2    -539337.9        82211            0            1   0.63636364 
 9058733            2            2    -539337.9        82944            0            1   0.63636364 
Loop time of 5353.84 on 20 procs for 82944 steps with 2925 atoms

Performance: 0.669 ns/day, 35.860 hours/ns, 15.492 timesteps/s
99.4% CPU use with 20 MPI tasks x no OpenMP threads

MPI task timing breakdown:
Section |  min time  |  avg time  |  max time  |%varavg| %total
---------------------------------------------------------------
Pair    | 0.89367    | 106.11     | 186.33     | 685.8 |  1.98
Bond    | 0.06065    | 0.15813    | 0.38436    |  30.1 |  0.00
Kspace  | 931.21     | 1011.5     | 1117.2     | 223.4 | 18.89
Neigh   | 261.15     | 266.73     | 277.96     |  36.3 |  4.98
Comm    | 32.919     | 48.974     | 57.661     | 125.5 |  0.91
Output  | 0.013087   | 0.016808   | 0.024606   |   2.8 |  0.00
Modify  | 3915.1     | 3918.5     | 3923.2     |   5.2 | 73.19
Other   |            | 1.83       |            |       |  0.03

Nlocal:        146.250 ave         225 max           5 min
Histogram: 4 0 4 0 0 0 0 0 0 12
Nghost:        4052.25 ave        6316 max        2321 min
Histogram: 8 0 0 0 0 8 0 0 0 4
Neighs:        70088.4 ave      122110 max          91 min
Histogram: 4 0 4 0 0 0 3 1 0 8
FullNghs:      140170.0 ave      238698 max        1920 min
Histogram: 4 4 0 0 0 0 0 0 4 8

Total # of neighbors = 2803410
Ave neighs/atom = 958.43077
Ave special neighs/atom = 0.043076923
Neighbor list builds = 165888
Dangerous builds = 0

  variable cnum equal (${cnum}-1)
  variable cnum equal (2-1)

  unfix swp
  thermo_style custom step temp pe
  write_data  001-dbt_3x3_${layer}L_fa_${type}_${cnum}_${temp}K.data
  write_data  001-dbt_3x3_21L_fa_${type}_${cnum}_${temp}K.data
  write_data  001-dbt_3x3_21L_fa_tet_half_${cnum}_${temp}K.data
  write_data  001-dbt_3x3_21L_fa_tet_half_1_${temp}K.data
  write_data  001-dbt_3x3_21L_fa_tet_half_1_2K.data
System init for write_data ...
PPPM initialization ...
  using 12-bit tables for long-range coulomb (../kspace.cpp:340)
  G vector (1/distance) = 0.29588697
  grid = 45 45 200
  stencil order = 5
  estimated absolute RMS force accuracy = 0.00034195275
  estimated relative force accuracy = 1.0297805e-06
  using double precision KISS FFT
  3d grid and FFT values/proc = 144150 77234

next temp
jump SELF minimize_temp

  variable ftemp equal v_temp

  # Minimize O-H bond
  group  immobile_1 type 1 2 3 6 7 8
2907 atoms in group immobile_1
  fix  freeze immobile_1 setforce 0.0 0.0 0.0
  minimize  1.0e-6 1.0e-9 1000 10000
PPPM initialization ...
  using 12-bit tables for long-range coulomb (../kspace.cpp:340)
  G vector (1/distance) = 0.29588697
  grid = 45 45 200
  stencil order = 5
  estimated absolute RMS force accuracy = 0.00034195275
  estimated relative force accuracy = 1.0297805e-06
  using double precision KISS FFT
  3d grid and FFT values/proc = 144150 77234
Per MPI rank memory allocation (min/avg/max) = 14.01 | 16.77 | 24.40 Mbytes
Step Temp PotEng 
 9058733            0    -539337.9 
 9058734            0    -539337.9 
Loop time of 0.629443 on 20 procs for 1 steps with 2925 atoms

99.4% CPU use with 20 MPI tasks x no OpenMP threads

Minimization stats:
  Stopping criterion = energy tolerance
  Energy initial, next-to-last, final = 
      -539337.90419127   -539337.90419127  -539337.904200179
  Force two-norm initial, final = 0.17698739 0.11384659
  Force max component initial, final = 0.080420764 0.050833105
  Final line search alpha, max atom move = 4.7683716e-07 2.4239113e-08
  Iterations, force evaluations = 1 41

MPI task timing breakdown:
Section |  min time  |  avg time  |  max time  |%varavg| %total
---------------------------------------------------------------
Pair    | 0.00067215 | 0.080593   | 0.14051    |  18.8 | 12.80
Bond    | 5.2572e-05 | 0.00013519 | 0.00034419 |   0.0 |  0.02
Kspace  | 0.47333    | 0.53357    | 0.61382    |   7.4 | 84.77
Neigh   | 0          | 0          | 0          |   0.0 |  0.00
Comm    | 0.0071574  | 0.011016   | 0.013829   |   2.3 |  1.75
Output  | 0          | 0          | 0          |   0.0 |  0.00
Modify  | 5.8547e-05 | 0.00011333 | 0.00062391 |   0.0 |  0.02
Other   |            | 0.004017   |            |       |  0.64

Nlocal:        146.250 ave         225 max           5 min
Histogram: 4 0 4 0 0 0 0 0 0 12
Nghost:        4052.25 ave        6316 max        2321 min
Histogram: 8 0 0 0 0 8 0 0 0 4
Neighs:        70088.4 ave      122110 max          91 min
Histogram: 4 0 4 0 0 0 3 1 0 8
FullNghs:      140170.0 ave      238698 max        1920 min
Histogram: 4 4 0 0 0 0 0 0 4 8

Total # of neighbors = 2803410
Ave neighs/atom = 958.43077
Ave special neighs/atom = 0.043076923
Neighbor list builds = 0
Dangerous builds = 0
  unfix  freeze
  group immobile_1 delete

  # Minimize formate
  group  immobile_2 type 6 7 8 9 10
2889 atoms in group immobile_2
  fix  freeze immobile_2 setforce 0.0 0.0 0.0
  minimize  1.0e-6 1.0e-9 1000 10000
PPPM initialization ...
  using 12-bit tables for long-range coulomb (../kspace.cpp:340)
  G vector (1/distance) = 0.29588697
  grid = 45 45 200
  stencil order = 5
  estimated absolute RMS force accuracy = 0.00034195275
  estimated relative force accuracy = 1.0297805e-06
  using double precision KISS FFT
  3d grid and FFT values/proc = 144150 77234
Per MPI rank memory allocation (min/avg/max) = 14.01 | 16.77 | 24.40 Mbytes
Step Temp PotEng 
 9058734            0    -539337.9 
 9058735            0   -539337.92 
Loop time of 0.0442229 on 20 procs for 1 steps with 2925 atoms

99.0% CPU use with 20 MPI tasks x no OpenMP threads

Minimization stats:
  Stopping criterion = energy tolerance
  Energy initial, next-to-last, final = 
     -539337.904200179  -539337.904200179  -539337.921396847
  Force two-norm initial, final = 7.1134116 8.6032996
  Force max component initial, final = 1.7295396 3.5619824
  Final line search alpha, max atom move = 0.057818855 0.20594974
  Iterations, force evaluations = 1 2

MPI task timing breakdown:
Section |  min time  |  avg time  |  max time  |%varavg| %total
---------------------------------------------------------------
Pair    | 5.4054e-05 | 0.0057581  | 0.010039   |   5.0 | 13.02
Bond    | 4.6931e-06 | 1.0476e-05 | 2.5334e-05 |   0.0 |  0.02
Kspace  | 0.03245    | 0.036749   | 0.042471   |   2.0 | 83.10
Neigh   | 0          | 0          | 0          |   0.0 |  0.00
Comm    | 0.00047353 | 0.00075552 | 0.00096606 |   0.0 |  1.71
Output  | 0          | 0          | 0          |   0.0 |  0.00
Modify  | 3.0281e-06 | 6.2042e-06 | 1.3065e-05 |   0.0 |  0.01
Other   |            | 0.0009434  |            |       |  2.13

Nlocal:        146.250 ave         225 max           5 min
Histogram: 4 0 4 0 0 0 0 0 0 12
Nghost:        4052.25 ave        6316 max        2321 min
Histogram: 8 0 0 0 0 8 0 0 0 4
Neighs:        70088.4 ave      122110 max          91 min
Histogram: 4 0 4 0 0 0 3 1 0 8
FullNghs:      140170.0 ave      238698 max        1920 min
Histogram: 4 4 0 0 0 0 0 0 4 8

Total # of neighbors = 2803410
Ave neighs/atom = 958.43077
Ave special neighs/atom = 0.043076923
Neighbor list builds = 0
Dangerous builds = 0
  unfix  freeze
  group immobile_2 delete

  # Electrostatic relaxation
  fix  swp fe atom/swap 1 1 ${rand} ${temp} ke no types 6 7
  fix  swp fe atom/swap 1 1 4097646 ${temp} ke no types 6 7
  fix  swp fe atom/swap 1 1 4097646 1 ke no types 6 7
  thermo 1000
  thermo_style custom step v_ftemp v_cnum pe f_swp[1] f_swp[2] v_rfet3 v_rfeo3
  run ${nsteps}
  run 82944
PPPM initialization ...
  using 12-bit tables for long-range coulomb (../kspace.cpp:340)
  G vector (1/distance) = 0.29588697
  grid = 45 45 200
  stencil order = 5
  estimated absolute RMS force accuracy = 0.00034195275
  estimated relative force accuracy = 1.0297805e-06
  using double precision KISS FFT
  3d grid and FFT values/proc = 144150 77234
Per MPI rank memory allocation (min/avg/max) = 12.88 | 15.64 | 23.27 Mbytes
Step v_ftemp v_cnum PotEng f_swp[1] f_swp[2] v_rfet3 v_rfeo3 
 9058735            1            1   -539337.92            0            0            1   0.63636364 
 9059000            1            1   -539337.92          265            0            1   0.63636364 
 9060000            1            1   -539337.92         1265            0            1   0.63636364 
 9061000            1            1   -539337.92         2265            0            1   0.63636364 
 9062000            1            1   -539337.92         3265            0            1   0.63636364 
 9063000            1            1   -539337.92         4265            0            1   0.63636364 
 9064000            1            1   -539337.92         5265            0            1   0.63636364 
 9065000            1            1   -539337.92         6265            0            1   0.63636364 
 9066000            1            1   -539337.92         7265            0            1   0.63636364 
 9067000            1            1   -539337.92         8265            0            1   0.63636364 
 9068000            1            1   -539337.92         9265            0            1   0.63636364 
 9069000            1            1   -539337.92        10265            0            1   0.63636364 
 9070000            1            1   -539337.92        11265            0            1   0.63636364 
 9071000            1            1   -539337.92        12265            0            1   0.63636364 
 9072000            1            1   -539337.92        13265            0            1   0.63636364 
 9073000            1            1   -539337.92        14265            0            1   0.63636364 
 9074000            1            1   -539337.92        15265            0            1   0.63636364 
 9075000            1            1   -539337.92        16265            0            1   0.63636364 
 9076000            1            1   -539337.92        17265            0            1   0.63636364 
 9077000            1            1   -539337.92        18265            0            1   0.63636364 
 9078000            1            1   -539337.92        19265            0            1   0.63636364 
 9079000            1            1   -539337.92        20265            0            1   0.63636364 
 9080000            1            1   -539337.92        21265            0            1   0.63636364 
 9081000            1            1   -539337.92        22265            0            1   0.63636364 
 9082000            1            1   -539337.92        23265            0            1   0.63636364 
 9083000            1            1   -539337.92        24265            0            1   0.63636364 
 9084000            1            1   -539337.92        25265            0            1   0.63636364 
 9085000            1            1   -539337.92        26265            0            1   0.63636364 
 9086000            1            1   -539337.92        27265            0            1   0.63636364 
 9087000            1            1   -539337.92        28265            0            1   0.63636364 
 9088000            1            1   -539337.92        29265            0            1   0.63636364 
 9089000            1            1   -539337.92        30265            0            1   0.63636364 
 9090000            1            1   -539337.92        31265            0            1   0.63636364 
 9091000            1            1   -539337.92        32265            0            1   0.63636364 
 9092000            1            1   -539337.92        33265            0            1   0.63636364 
 9093000            1            1   -539337.92        34265            0            1   0.63636364 
 9094000            1            1   -539337.92        35265            0            1   0.63636364 
 9095000            1            1   -539337.92        36265            0            1   0.63636364 
 9096000            1            1   -539337.92        37265            0            1   0.63636364 
 9097000            1            1   -539337.92        38265            0            1   0.63636364 
 9098000            1            1   -539337.92        39265            0            1   0.63636364 
 9099000            1            1   -539337.92        40265            0            1   0.63636364 
 9100000            1            1   -539337.92        41265            0            1   0.63636364 
 9101000            1            1   -539337.92        42265            0            1   0.63636364 
 9102000            1            1   -539337.92        43265            0            1   0.63636364 
 9103000            1            1   -539337.92        44265            0            1   0.63636364 
 9104000            1            1   -539337.92        45265            0            1   0.63636364 
 9105000            1            1   -539337.92        46265            0            1   0.63636364 
 9106000            1            1   -539337.92        47265            0            1   0.63636364 
 9107000            1            1   -539337.92        48265            0            1   0.63636364 
 9108000            1            1   -539337.92        49265            0            1   0.63636364 
 9109000            1            1   -539337.92        50265            0            1   0.63636364 
 9110000            1            1   -539337.92        51265            0            1   0.63636364 
 9111000            1            1   -539337.92        52265            0            1   0.63636364 
 9112000            1            1   -539337.92        53265            0            1   0.63636364 
 9113000            1            1   -539337.92        54265            0            1   0.63636364 
 9114000            1            1   -539337.92        55265            0            1   0.63636364 
 9115000            1            1   -539337.92        56265            0            1   0.63636364 
 9116000            1            1   -539337.92        57265            0            1   0.63636364 
 9117000            1            1   -539337.92        58265            0            1   0.63636364 
 9118000            1            1   -539337.92        59265            0            1   0.63636364 
 9119000            1            1   -539337.92        60265            0            1   0.63636364 
 9120000            1            1   -539337.92        61265            0            1   0.63636364 
 9121000            1            1   -539337.92        62265            0            1   0.63636364 
 9122000            1            1   -539337.92        63265            0            1   0.63636364 
 9123000            1            1   -539337.92        64265            0            1   0.63636364 
 9124000            1            1   -539337.92        65265            0            1   0.63636364 
 9125000            1            1   -539337.92        66265            0            1   0.63636364 
 9126000            1            1   -539337.92        67265            0            1   0.63636364 
 9127000            1            1   -539337.92        68265            0            1   0.63636364 
 9128000            1            1   -539337.92        69265            0            1   0.63636364 
 9129000            1            1   -539337.92        70265            0            1   0.63636364 
 9130000            1            1   -539337.92        71265            0            1   0.63636364 
 9131000            1            1   -539337.92        72265            0            1   0.63636364 
 9132000            1            1   -539337.92        73265            0            1   0.63636364 
 9133000            1            1   -539337.92        74265            0            1   0.63636364 
 9134000            1            1   -539337.92        75265            0            1   0.63636364 
 9135000            1            1   -539337.92        76265            0            1   0.63636364 
 9136000            1            1   -539337.92        77265            0            1   0.63636364 
 9137000            1            1   -539337.92        78265            0            1   0.63636364 
 9138000            1            1   -539337.92        79265            0            1   0.63636364 
 9139000            1            1   -539337.92        80265            0            1   0.63636364 
 9140000            1            1   -539337.92        81265            0            1   0.63636364 
 9141000            1            1   -539337.92        82265            0            1   0.63636364 
 9141679            1            1   -539337.92        82944            0            1   0.63636364 
Loop time of 5356.04 on 20 procs for 82944 steps with 2925 atoms

Performance: 0.669 ns/day, 35.875 hours/ns, 15.486 timesteps/s
99.4% CPU use with 20 MPI tasks x no OpenMP threads

MPI task timing breakdown:
Section |  min time  |  avg time  |  max time  |%varavg| %total
---------------------------------------------------------------
Pair    | 0.86712    | 106.19     | 186.44     | 686.2 |  1.98
Bond    | 0.061031   | 0.15134    | 0.34519    |  27.6 |  0.00
Kspace  | 933.19     | 1013.6     | 1119.4     | 223.4 | 18.92
Neigh   | 260.2      | 265.78     | 276.64     |  35.2 |  4.96
Comm    | 32.396     | 47.901     | 56.399     | 123.4 |  0.89
Output  | 0.013383   | 0.016941   | 0.02438    |   2.7 |  0.00
Modify  | 3917.2     | 3920.6     | 3925.2     |   5.1 | 73.20
Other   |            | 1.852      |            |       |  0.03

Nlocal:        146.250 ave         225 max           5 min
Histogram: 4 0 4 0 0 0 0 0 0 12
Nghost:        4052.25 ave        6316 max        2321 min
Histogram: 8 0 0 0 0 8 0 0 0 4
Neighs:        70088.4 ave      122110 max          91 min
Histogram: 4 0 4 0 0 0 3 1 0 8
FullNghs:      140170.0 ave      238698 max        1920 min
Histogram: 4 4 0 0 0 0 0 0 4 8

Total # of neighbors = 2803410
Ave neighs/atom = 958.43077
Ave special neighs/atom = 0.043076923
Neighbor list builds = 165888
Dangerous builds = 0

  variable cnum equal (${cnum}-1)
  variable cnum equal (1-1)

  unfix swp
  thermo_style custom step temp pe
  write_data  001-dbt_3x3_${layer}L_fa_${type}_${cnum}_${temp}K.data
  write_data  001-dbt_3x3_21L_fa_${type}_${cnum}_${temp}K.data
  write_data  001-dbt_3x3_21L_fa_tet_half_${cnum}_${temp}K.data
  write_data  001-dbt_3x3_21L_fa_tet_half_0_${temp}K.data
  write_data  001-dbt_3x3_21L_fa_tet_half_0_1K.data
System init for write_data ...
PPPM initialization ...
  using 12-bit tables for long-range coulomb (../kspace.cpp:340)
  G vector (1/distance) = 0.29588697
  grid = 45 45 200
  stencil order = 5
  estimated absolute RMS force accuracy = 0.00034195275
  estimated relative force accuracy = 1.0297805e-06
  using double precision KISS FFT
  3d grid and FFT values/proc = 144150 77234

next temp
jump SELF minimize_temp

write_data  001-dbt_3x3_${layer}L_fa_${type}_qeq.data
write_data  001-dbt_3x3_21L_fa_${type}_qeq.data
write_data  001-dbt_3x3_21L_fa_tet_half_qeq.data
System init for write_data ...
PPPM initialization ...
  using 12-bit tables for long-range coulomb (../kspace.cpp:340)
  G vector (1/distance) = 0.29588697
  grid = 45 45 200
  stencil order = 5
  estimated absolute RMS force accuracy = 0.00034195275
  estimated relative force accuracy = 1.0297805e-06
  using double precision KISS FFT
  3d grid and FFT values/proc = 144150 77234
Total wall time: 161:36:57
