LAMMPS data file via write_data, version 17 Feb 2022, timestep = 46

2970 atoms
10 atom types
72 bonds
6 bond types
108 angles
6 angle types
0 dihedrals
2 dihedral types
18 impropers
2 improper types

0 25.44 xlo xhi
0 25.44 ylo yhi
-41.458422 32.908 zlo zhi

Masses

1 12.011
2 1.008
3 15.9994
4 15.9994
5 1.008
6 55.845
7 55.845
8 15.9994
9 15.9994
10 1.008

Pair Coeffs # lj/cut/coul/long

1 0.0988 3.31521
2 0.0161 2.4473
3 0.1463 3.04812
4 0.093 3.24287
5 0.0047 0.537925
6 9.0298e-07 4.9062
7 9.0298e-07 4.9062
8 0.1554 3.16554
9 0.1554 3.16554
10 0 0

Bond Coeffs # harmonic

1 361.8 1.105
2 652.57 1.218
3 383.13 1.351
4 563.51 0.973
5 554.135 1
6 0 2.08

Angle Coeffs # harmonic

1 51.617 106.55
2 65.93 123.65
3 65.262 109.49
4 115.745 122.1
5 118.817 130.25
6 30 109.47

Dihedral Coeffs # fourier

1 1 2.3 2 180
2 2 2.3 2 180 1.9 1 0

Improper Coeffs # cvff

1 10.5 -1 2
2 10.5 -1 2

Atoms # full

3 0 7 1.575 0.090242534080078 1.2867215903947682 -29.35617389473254 0 0 0
73 0 7 1.575 4.32070920045146 5.525337151072212 -29.37413385364267 0 0 0
7 0 7 1.575 2.2100206593657488 3.4143683713343647 -29.35999249126354 0 0 0
6 0 8 -1.05 2.079469622224887 1.4353676012484953 -29.39743212271047 0 0 0
70 0 8 -1.05 2.3736370841095016 5.379707478729528 -29.421434089666334 0 0 0
4 0 8 -1.05 0.23542267726089913 3.2742656577698255 -29.348300993739688 0 0 0
11 0 8 -1.05 4.191360115137544 3.561875412789654 -29.407783274922576 0 0 0
10 0 7 1.575 3.24348221838113 0.2177549177135161 -28.531461516883663 0 0 0
13 0 6 1.05 4.357883572892937 3.3964179587555834 -27.40037219111309 0 0 0
68 0 6 1.05 2.158208492705764 5.567539377805681 -27.431688663890455 0 0 0
1 0 8 -1.05 0.04730114127284444 1.2337378873953324 -27.310998454350422 0 0 0
9 0 8 -1.05 2.279788326707788 3.467490419489215 -27.30997433279382 0 0 0
64 0 8 -1.05 0.0689195168683106 5.519808805855193 -27.163169219946735 0 0 0
14 0 8 -1.05 4.404946961118651 1.2313532724503014 -27.24640951260644 0 0 0
71 0 8 -1.05 4.303436192976832 5.492355405705643 -27.344347396450598 0 0 0
74 0 8 -1.05 4.474709321938584 7.526141300531092 -29.379241599179764 0 0 0
61 0 8 -1.05 25.36035330120371 7.827942335093319 -29.44514402335907 -1 0 0
67 0 8 -1.05 2.2127747027124536 7.685580455329176 -27.179910683803545 0 0 0
63 0 6 1.05 0.13978157022921472 7.571326340408486 -27.461085440448525 0 0 0
76 0 8 -1.05 6.319247094749608 5.684686758565818 -29.43199203265547 0 0 0
20 0 8 -1.05 6.610516166769718 1.1266435036916669 -29.34664580842118 0 0 0
17 0 8 -1.05 6.504942679509508 3.314127650355742 -27.32039622149443 0 0 0
80 0 7 1.575 7.483890559796352 4.45924054383997 -28.567017706398076 0 0 0
18 0 7 1.575 6.397517763817483 1.3361676317357614 -27.41340605956089 0 0 0
77 0 7 1.575 6.425861091784715 7.641274103150334 -29.42939961929924 0 0 0
79 0 8 -1.05 6.545871842234607 7.732003973295182 -27.31766966754728 0 0 0
23 0 7 1.575 8.570721126551648 1.295361324115867 -29.45022611767712 0 0 0
27 0 7 1.575 10.671068601098916 3.395396526268665 -29.448780600272613 0 0 0
26 0 8 -1.05 10.538688430977087 1.4251518466099082 -29.429993184725717 0 0 0
90 0 8 -1.05 10.835192172818083 5.374999882355573 -29.341836542687524 0 0 0
24 0 8 -1.05 8.705608519742484 3.269734911187839 -29.428769751597358 0 0 0
30 0 7 1.575 11.75666958859132 0.21874256571360004 -28.580746889299384 0 0 0
88 0 7 1.575 10.645635784647023 5.550882232019978 -27.391515943779858 0 0 0
21 0 8 -1.05 8.49060092320823 1.1913334672098115 -27.354822955911644 0 0 0
29 0 8 -1.05 10.752866540036333 3.4984355660984137 -27.352790117672136 0 0 0
84 0 8 -1.05 8.623140390516458 5.579890690012043 -27.355003109467685 0 0 0
81 0 8 -1.05 8.40895717126854 7.803825724143925 -29.317760325052436 0 0 0
87 0 8 -1.05 10.621905356782188 7.575520231868205 -27.34239870150571 0 0 0
83 0 7 1.575 8.59571624085217 7.603952970761827 -27.374878298932174 0 0 0
99 0 8 -1.05 15.006099332241021 7.738326630588929 -27.361483783749925 0 0 0
97 0 7 1.575 14.924348575718833 7.625792155379985 -29.444024265315452 0 0 0
93 0 7 1.575 12.817200844031461 5.526903202022509 -29.445577143546878 0 0 0
31 0 8 -1.05 12.63251580254613 3.568494186711846 -29.346465156336656 0 0 0
33 0 7 1.575 12.842251126154755 3.3438345841769537 -27.414514117237612 0 0 0
34 0 8 -1.05 12.730884670031495 1.3700203170664123 -27.330970587945004 0 0 0
91 0 8 -1.05 12.697526371560368 5.445236909428993 -27.358171850904984 0 0 0
38 0 6 1.05 14.88391853427382 1.2836742280673104 -27.414611560716587 0 0 0
100 0 7 1.575 16.004641612813494 4.450042940758706 -28.523298956912097 0 0 0
37 0 8 -1.05 14.831485199957662 3.45821764801995 -27.252528866858594 0 0 0
40 0 8 -1.05 15.05347447867334 1.139169645827802 -29.422845342227014 0 0 0
94 0 8 -1.05 12.946431925519759 7.497886077990857 -29.42501849263627 0 0 0
96 0 8 -1.05 14.783717532295718 5.656573566269534 -29.37793904226295 0 0 0
60 0 8 -1.05 23.5763654756918 1.1308187992126264 -29.422665048859376 0 0 0
116 0 8 -1.05 23.278697024426908 5.666741095496996 -29.33577840436951 0 0 0
120 0 7 1.575 24.457691519148007 4.443027501415646 -28.47084701361875 0 0 0
58 0 6 1.05 23.358381243542542 1.331682124958252 -27.435077108261314 0 0 0
57 0 8 -1.05 23.41514065999097 3.4181159046698815 -27.151333493974537 0 0 0
117 0 7 1.575 23.41086741491593 7.628086214077056 -29.401195826126795 0 0 0
119 0 8 -1.05 23.442201182427496 7.765267342425225 -27.321643813330862 0 0 0
103 0 7 1.575 17.10945546737752 7.6026577812820335 -27.41074808162942 0 0 0
107 0 8 -1.05 19.08294719031195 7.7067547121028435 -27.321112999353474 0 0 0
101 0 8 -1.05 16.882605341213036 7.799652150976053 -29.34357284069003 0 0 0
114 0 8 -1.05 21.439421907257138 7.511618647072385 -29.441731605305648 0 0 0
111 0 8 -1.05 21.232262022131525 5.497097174880412 -27.329115133476975 0 0 0
54 0 8 -1.05 21.269415455568943 1.276570134671227 -27.170063272512113 0 0 0
104 0 8 -1.05 16.98567101238 5.610677149419544 -27.24358417626849 0 0 0
49 0 8 -1.05 19.206712331890696 3.4795731497828495 -27.33009564357234 0 0 0
41 0 8 -1.05 16.958217205157514 1.232292623922105 -27.334163124651305 0 0 0
108 0 6 1.05 19.1610278198542 5.559655538700371 -27.40539166599873 0 0 0
53 0 6 1.05 21.33201277984212 3.3567391212896607 -27.446486669244802 0 0 0
50 0 7 1.575 20.230846375621432 0.22143958562161023 -28.48575078254434 0 0 0
51 0 8 -1.05 21.124500409974356 3.5733216963890038 -29.43361671805268 0 0 0
44 0 8 -1.05 17.18007152383459 3.2642780783154595 -29.410316631104813 0 0 0
110 0 8 -1.05 19.30644945492623 5.384793122795303 -29.412322431498545 0 0 0
46 0 8 -1.05 19.02140332352504 1.4213307722123902 -29.345798826855987 0 0 0
47 0 7 1.575 19.171458666890288 3.4027301197502573 -29.371836144470752 0 0 0
113 0 7 1.575 21.2847973283949 5.521682445076907 -29.37073946667005 0 0 0
43 0 7 1.575 17.042555379242106 1.2778968527009422 -29.37627565952297 0 0 0
123 0 7 1.575 0.09071667432228096 9.768299886310876 -29.39683549931433 0 0 0
127 0 7 1.575 2.2002475350173114 11.875944144395476 -29.38251266498745 0 0 0
126 0 8 -1.05 2.0706718831239836 9.907528410110151 -29.384093160193455 0 0 0
124 0 8 -1.05 0.22718219992890742 11.7506235293717 -29.382052572722625 0 0 0
131 0 8 -1.05 4.189763874409819 12.021569594367197 -29.295418631152277 0 0 0
130 0 7 1.575 3.2441824111638913 8.690438092214166 -28.509883937029347 0 0 0
133 0 7 1.575 4.347809054546849 11.85332565466136 -27.347947378374 0 0 0
121 0 8 -1.05 25.416020732829043 9.73703825567601 -27.32943830886805 -1 0 0
129 0 8 -1.05 2.3175375415400112 11.900226183370457 -27.31457111345345 0 0 0
134 0 8 -1.05 4.394301692896905 9.814871548618761 -27.30367101839515 0 0 0
140 0 8 -1.05 6.608339597460502 9.610593506958125 -29.301595640152186 0 0 0
137 0 8 -1.05 6.399048949919777 11.79914067575479 -27.30919073592618 0 0 0
138 0 7 1.575 6.401831087888063 9.789732573377197 -27.358128858703555 0 0 0
193 0 7 1.575 4.326949885690568 14.004442256060159 -29.38457468737944 0 0 0
190 0 8 -1.05 2.3762259110361788 13.826682330981827 -29.404843791072068 0 0 0
188 0 6 1.05 2.1710402363949215 14.04271802052553 -27.399526771270644 0 0 0
184 0 8 -1.05 0.028453036670155685 14.061228227637292 -27.246159513502068 0 0 0
191 0 8 -1.05 4.305256701218471 13.888914480112872 -27.3159031572649 0 0 0
194 0 8 -1.05 4.469890066865128 15.97625692531891 -29.394541603979214 0 0 0
181 0 8 -1.05 25.371864226949764 16.271760946429012 -29.337694958242672 -1 0 0
187 0 8 -1.05 2.124075765493716 16.13784608730162 -27.316469280735483 0 0 0
183 0 7 1.575 0.1337418377265288 16.077938090313825 -27.403604148793995 0 0 0
196 0 8 -1.05 6.305483733091858 14.129681586153117 -29.382150798325956 0 0 0
200 0 7 1.575 7.504844278463637 12.934401723455125 -28.51884191574111 0 0 0
197 0 7 1.575 6.447533190330204 16.105495913565292 -29.409319764979433 0 0 0
199 0 8 -1.05 6.485862610820749 16.234496144807657 -27.347919675073687 0 0 0
143 0 7 1.575 8.57113460575074 9.775034293821996 -29.419042769035205 0 0 0
147 0 7 1.575 10.6845429789672 11.873028909964393 -29.3990058026027 0 0 0
146 0 8 -1.05 10.537252634965366 9.890752617624415 -29.380152529742634 0 0 0
144 0 8 -1.05 8.699853692134287 11.736726314823239 -29.402884504247073 0 0 0
150 0 7 1.575 11.756608496028608 8.697685392809367 -28.538831706164572 0 0 0
141 0 8 -1.05 8.485062585094855 9.671755040003656 -27.3175369069884 0 0 0
149 0 8 -1.05 10.710815981014601 11.972260577591321 -27.342731997362858 0 0 0
210 0 8 -1.05 10.828548978793258 13.844557213945937 -29.321070476655386 0 0 0
208 0 7 1.575 10.660363668238988 14.039610503830772 -27.387540624054378 0 0 0
204 0 8 -1.05 8.624852330108006 13.950670937777025 -27.239044795602176 0 0 0
201 0 8 -1.05 8.397757516701471 16.273750246399526 -29.434014167807117 0 0 0
203 0 6 1.05 8.621628685158802 16.086412753229297 -27.427432182724786 0 0 0
207 0 8 -1.05 10.701007335207574 16.03916251322671 -27.304928335362188 0 0 0
158 0 7 1.575 14.896231463404233 9.810959470938808 -27.4090027425845 0 0 0
157 0 8 -1.05 14.956512163966726 11.78859118597087 -27.314581051438385 0 0 0
160 0 8 -1.05 15.078558361438576 9.599189704821246 -29.347941123519778 0 0 0
151 0 8 -1.05 12.633448959389764 12.030829155146245 -29.42605133776556 0 0 0
153 0 6 1.05 12.866012738455652 11.852294055448397 -27.420631632642614 0 0 0
154 0 8 -1.05 12.874073278867025 9.708649260262568 -27.256928126806173 0 0 0
219 0 8 -1.05 14.9639680733786 16.169006319441767 -27.35094073914981 0 0 0
217 0 7 1.575 14.93053972579326 16.122367431886566 -29.383985047456015 0 0 0
220 0 7 1.575 16.009806887125812 12.953781808818366 -28.531565369453503 0 0 0
216 0 8 -1.05 14.782817436599219 14.12633962687477 -29.3846705958671 0 0 0
213 0 7 1.575 12.820178013805746 13.992614963742158 -29.403393968425643 0 0 0
211 0 8 -1.05 12.689600634835188 13.949993325493592 -27.316056455944985 0 0 0
214 0 8 -1.05 12.937771455159014 15.963353812326005 -29.421698022707755 0 0 0
180 0 8 -1.05 23.548821401075376 9.62735042945044 -29.30743151452194 0 0 0
178 0 7 1.575 23.381126784233295 9.77981842369006 -27.358673762781915 0 0 0
177 0 8 -1.05 23.339889952654648 11.816027391036611 -27.31137901693098 0 0 0
174 0 8 -1.05 21.346576900836553 9.820856462812428 -27.33081558014223 0 0 0
169 0 8 -1.05 19.27824529923787 11.897814946299459 -27.35877622332491 0 0 0
161 0 8 -1.05 16.942944895581032 9.66375520928023 -27.330252429557017 0 0 0
173 0 7 1.575 21.309670760238387 11.849721034733193 -27.372252283173474 0 0 0
170 0 7 1.575 20.24706750645977 8.699081536149523 -28.5605251832597 0 0 0
171 0 8 -1.05 21.16102635562147 12.015860534477923 -29.323711640187085 0 0 0
164 0 8 -1.05 17.191880306796566 11.727777868028507 -29.39304914394203 0 0 0
166 0 8 -1.05 19.029842842899736 9.890500848813689 -29.432495916749346 0 0 0
167 0 7 1.575 19.174546636799093 11.86750335341915 -29.421564131618062 0 0 0
163 0 7 1.575 17.064329546571436 9.767862183085798 -29.44487454818016 0 0 0
223 0 6 1.05 17.086038973329845 16.084419581382726 -27.445478440309 0 0 0
227 0 8 -1.05 19.197373793244694 16.12175884042045 -27.212293058338787 0 0 0
236 0 8 -1.05 23.27654422469405 14.142224651407743 -29.41711224872422 0 0 0
240 0 7 1.575 24.442196583376067 12.92576830649109 -28.526196104137814 0 0 0
221 0 8 -1.05 16.885835862947005 16.27303803216983 -29.439021827443963 0 0 0
234 0 8 -1.05 21.431398399535983 15.97664986734803 -29.374685453337413 0 0 0
237 0 7 1.575 23.39177500586611 16.11285451825498 -29.433757170572648 0 0 0
239 0 8 -1.05 23.508330574658036 16.207951766635105 -27.32933534366475 0 0 0
231 0 8 -1.05 21.26839929461345 13.882624475640029 -27.349486679514005 0 0 0
224 0 8 -1.05 17.046141202055953 13.971435849047253 -27.21243708857635 0 0 0
228 0 6 1.05 19.106160092577717 14.066757117190065 -27.493734636680383 0 0 0
230 0 8 -1.05 19.349475711848214 13.81055786347676 -29.475755976708964 0 0 0
233 0 7 1.575 21.291362086340868 14.002023008794213 -29.415534624981536 0 0 0
301 0 8 -1.05 25.38954965241976 24.75371344124121 -29.39881109586825 -1 0 0
314 0 8 -1.05 4.47011980737557 24.473168191834635 -29.40493218982695 0 0 0
303 0 6 1.05 0.12237842932226703 24.593440613723367 -27.392985570010502 0 0 0
307 0 8 -1.05 2.2485712225081627 24.516956852612758 -27.283533488487695 0 0 0
243 0 7 1.575 0.09838851296762119 18.255461036276014 -29.43197577565143 0 0 0
313 0 7 1.575 4.328005158453836 22.49050914733995 -29.409846418942728 0 0 0
247 0 7 1.575 2.207237854668537 20.364643449789384 -29.40976534016321 0 0 0
246 0 8 -1.05 2.066926738653719 18.38288208143454 -29.39880139886539 0 0 0
310 0 8 -1.05 2.356742050301191 22.337021284971435 -29.32759590594411 0 0 0
244 0 8 -1.05 0.22522635103533326 20.22108319843056 -29.37601290345205 0 0 0
251 0 8 -1.05 4.16490842365401 20.53268170361609 -29.450073016388004 0 0 0
250 0 7 1.575 3.270524408523952 17.182522781880945 -28.536687077152095 0 0 0
253 0 6 1.05 4.379321553831746 20.337228012149357 -27.439452450245295 0 0 0
308 0 7 1.575 2.176949215974577 22.528815748975003 -27.388907593199757 0 0 0
241 0 8 -1.05 25.438397939662096 18.133148414510693 -27.333734601274564 -1 0 0
249 0 8 -1.05 2.256924616131803 20.467821822791873 -27.353657606750453 0 0 0
304 0 8 -1.05 0.1695812565618059 22.438663907728003 -27.220266652928046 0 0 0
254 0 8 -1.05 4.392162189695506 18.211620792600243 -27.258718188915136 0 0 0
311 0 8 -1.05 4.233320123974174 22.450308462232865 -27.34490385687215 0 0 0
317 0 7 1.575 6.429198427444839 24.59905458945028 -29.45205094098031 0 0 0
319 0 8 -1.05 6.550903586410551 24.694642965389562 -27.355616185535283 0 0 0
316 0 8 -1.05 6.311798119238764 22.633710978135998 -29.416185919895955 0 0 0
260 0 8 -1.05 6.595967038328359 18.089024585927188 -29.340932750297817 0 0 0
258 0 7 1.575 6.419560410355754 18.2845908341262 -27.40512158751765 0 0 0
257 0 8 -1.05 6.47567537348836 20.288434712704657 -27.33883623795886 0 0 0
320 0 7 1.575 7.503155013475607 21.402587238527815 -28.58313900304287 0 0 0
321 0 8 -1.05 8.41022937723314 24.762620536891482 -29.35310171311989 0 0 0
323 0 7 1.575 8.599212721628655 24.563964000243807 -27.408075760987284 0 0 0
327 0 8 -1.05 10.619195395604745 24.539309856707693 -27.373845559271658 0 0 0
263 0 7 1.575 8.579185782306386 18.22500080101775 -29.41065299035711 0 0 0
267 0 7 1.575 10.676810454504192 20.339304237743583 -29.44717977639929 0 0 0
266 0 8 -1.05 10.552353219439501 18.37241858847685 -29.37221956857363 0 0 0
330 0 8 -1.05 10.837474204984526 22.319306661338196 -29.346536953413178 0 0 0
324 0 8 -1.05 8.623444629209372 22.539993400562867 -27.377676464808776 0 0 0
264 0 8 -1.05 8.71119564913068 20.210868909779336 -29.45480149067208 0 0 0
269 0 8 -1.05 10.755449887771952 20.45901885431885 -27.35067920927912 0 0 0
261 0 8 -1.05 8.461718885570168 18.213997755873397 -27.341250913405116 0 0 0
328 0 7 1.575 10.650950163836686 22.512480390606083 -27.402830836454697 0 0 0
270 0 7 1.575 11.766750479824235 17.16419560402663 -28.528461445236886 0 0 0
278 0 6 1.05 14.920809485957658 18.27851354213015 -27.41213666818814 0 0 0
340 0 7 1.575 16.014312308621957 21.43413399246352 -28.526922290314502 0 0 0
277 0 8 -1.05 14.828984034827618 20.404819388428834 -27.29848719110286 0 0 0
280 0 8 -1.05 15.063440814764277 18.08525144025731 -29.41742068040799 0 0 0
336 0 8 -1.05 14.77622515079188 22.609175694262607 -29.39280779658412 0 0 0
334 0 8 -1.05 12.925658273899398 24.44161334163278 -29.44974666629804 0 0 0
339 0 8 -1.05 14.933283635772808 24.643054614919357 -27.356613165164795 0 0 0
337 0 7 1.575 14.92628885130625 24.604760681885516 -29.390122843586298 0 0 0
333 0 7 1.575 12.826800914395234 22.478430844394516 -29.451051687255518 0 0 0
331 0 8 -1.05 12.6901382637855 22.38535247662596 -27.331196095367183 0 0 0
274 0 8 -1.05 12.743269736075915 18.315911636547966 -27.239086352897676 0 0 0
271 0 8 -1.05 12.634444149362048 20.51066906216448 -29.340905829309648 0 0 0
273 0 7 1.575 12.863029476001191 20.314567306634483 -27.41103476643037 0 0 0
357 0 7 1.575 23.412768041515662 24.612935947977064 -29.359045638607007 0 0 0
359 0 8 -1.05 23.473882113056415 24.65801860027208 -27.31595435984156 0 0 0
351 0 8 -1.05 21.232846713934038 22.413522535303002 -27.32504565815099 0 0 0
294 0 8 -1.05 21.3816911495613 18.19617422192794 -27.293810450197157 0 0 0
344 0 8 -1.05 17.015448067742454 22.472954667781128 -27.193851897835614 0 0 0
289 0 8 -1.05 19.21771605848101 20.407426854668216 -27.337451921006092 0 0 0
281 0 8 -1.05 16.99235193952258 18.180500684562215 -27.326353604649317 0 0 0
348 0 6 1.05 19.11817001915331 22.529354017194436 -27.46619608540981 0 0 0
293 0 6 1.05 21.29521533211366 20.328641957255844 -27.405324247667338 0 0 0
290 0 7 1.575 20.213755638661016 17.18799776628755 -28.528760122212105 0 0 0
291 0 8 -1.05 21.15268722776529 20.50285355672239 -29.410901321004598 0 0 0
284 0 8 -1.05 17.186276461513955 20.217190599611634 -29.39577706757775 0 0 0
350 0 8 -1.05 19.330558733899117 22.310888391815915 -29.450350269416546 0 0 0
286 0 8 -1.05 19.02342943692214 18.371014669805334 -29.41142372511353 0 0 0
287 0 7 1.575 19.177574192380078 20.35495892076809 -29.38312767983931 0 0 0
353 0 7 1.575 21.289044006759713 22.48059743350948 -29.36935260418262 0 0 0
283 0 7 1.575 17.0396206506767 18.242344280543566 -29.376391376247096 0 0 0
300 0 8 -1.05 23.575798807625077 18.076903694615357 -29.334035000557975 0 0 0
356 0 8 -1.05 23.276334715040935 22.624071075388677 -29.384305452836585 0 0 0
360 0 7 1.575 24.46935709542606 21.44264989799895 -28.508914763361723 0 0 0
298 0 7 1.575 23.3511119679508 18.287055505693694 -27.40396417733766 0 0 0
297 0 8 -1.05 23.467204380543958 20.278607520360694 -27.23279259537728 0 0 0
347 0 8 -1.05 19.16920209060092 24.60917030399475 -27.17994249400325 0 0 0
343 0 6 1.05 17.09160908920649 24.556417322217087 -27.456984815297822 0 0 0
354 0 8 -1.05 21.430009492443286 24.46292055808288 -29.355552329007548 0 0 0
341 0 8 -1.05 16.87015634213102 24.76379173936388 -29.445513219474655 0 0 0
75 0 7 1.575 5.380023791607966 6.613868348249801 -26.26783597742749 0 0 0
5 0 7 1.575 1.132301701823989 2.3745768836607346 -26.26600824984167 0 0 0
66 0 8 -1.05 2.091220220217127 5.641817545859903 -25.095341233981305 0 0 0
15 0 8 -1.05 4.406535420713754 3.2545160614263726 -25.16399789361858 0 0 0
405 0 7 1.575 1.1351319996457765 6.591624210452834 -22.04058272049374 0 0 0
371 0 7 1.575 5.3703580638480615 2.3588835835820636 -22.061543952011892 0 0 0
408 0 7 1.575 3.280987338672123 4.448640191201808 -24.20027329718284 0 0 0
361 0 6 1.05 0.05193006108733439 1.2833169070190964 -20.99674950802561 0 0 0
409 0 6 1.05 4.318815234044699 5.5067207565734595 -20.976290816413883 0 0 0
362 0 6 1.05 0.07410087028769023 3.391793678964473 -23.065374172814565 0 0 0
367 0 7 1.575 2.199175088070469 1.283760778560151 -23.108837255522328 0 0 0
12 0 7 1.575 4.3078293386275 1.2682912922278673 -25.268311180228242 0 0 0
62 0 7 1.575 0.07211218188733377 5.5085986196281045 -25.20070247489027 0 0 0
368 0 7 1.575 2.223080772126163 3.414629035362609 -20.982922543034018 0 0 0
365 0 8 -1.05 2.189817824815836 1.4011344880125685 -20.97929125612614 0 0 0
406 0 8 -1.05 2.1875654236749296 5.456953190192947 -20.832356837142495 0 0 0
411 0 8 -1.05 4.43261423572985 5.503781774792397 -23.013644589800492 0 0 0
366 0 8 -1.05 2.2348454963183277 3.333271127283459 -22.953034492347438 0 0 0
369 0 8 -1.05 4.235571354467858 1.2553239842308017 -23.12041451485704 0 0 0
364 0 8 -1.05 0.23183628637360296 3.352391197035252 -20.880050773609074 0 0 0
370 0 8 -1.05 4.237476718509488 3.41396993970641 -20.880724061369207 0 0 0
8 0 8 -1.05 2.2890519812267067 1.3151476361765055 -25.07766161744614 0 0 0
403 0 8 -1.05 0.02769999997425919 5.479905100178147 -23.0986212466564 0 0 0
2 0 8 -1.05 0.018101943404244696 3.481045479674518 -25.105747542836777 0 0 0
363 0 8 -1.05 0.19957037186875437 1.2763699509701856 -23.025106861099598 0 0 0
618 0 7 1.575 3.2680866087739133 0.2187628890324869 -19.94146851449778 0 0 0
65 0 8 -1.05 0.1920234443091973 7.531293664553025 -25.104721538662503 0 0 0
412 0 8 -1.05 4.472522054101825 7.584719090244598 -20.880920382869597 0 0 0
69 0 7 1.575 2.2128143888455867 7.644846868305396 -25.228718727036465 0 0 0
410 0 6 1.05 4.332404266438412 7.624077239531939 -23.083745683331113 0 0 0
72 0 8 -1.05 4.2247098592677945 7.653953606431679 -25.11193241788395 0 0 0
404 0 8 -1.05 25.43562223058245 7.721128392174256 -20.905189463146176 -1 0 0
407 0 8 -1.05 2.237540729087391 7.764634080105231 -23.062082398999586 0 0 0
16 0 8 -1.05 6.347754441261109 1.302702774824006 -25.299986663607708 0 0 0
413 0 8 -1.05 6.4331145730035075 5.628673821062316 -20.982047429274374 0 0 0
374 0 7 1.575 7.51260369534498 0.2115351446850004 -24.240612414283802 0 0 0
415 0 7 1.575 6.4369905016694355 5.516920648507635 -23.109519888538674 0 0 0
19 0 6 1.05 6.460476604624538 3.4425219480414984 -25.29562162492266 0 0 0
373 0 8 -1.05 6.570893874344255 3.5062253083001087 -23.00746494947359 0 0 0
78 0 8 -1.05 6.465223067920444 5.542906621772907 -25.064022853797805 0 0 0
372 0 8 -1.05 6.436668997078093 1.28797734043019 -20.824503791050038 0 0 0
668 0 7 1.575 7.5191593585894365 4.446498378710773 -19.94434660109555 0 0 0
414 0 8 -1.05 6.498331655882394 7.556050140128893 -22.958740665961127 0 0 0
416 0 7 1.575 6.458425120854685 7.653648225398823 -20.98233409247547 0 0 0
25 0 7 1.575 9.62270350689198 2.340391274907744 -26.307674509004574 0 0 0
86 0 8 -1.05 10.639036013485791 5.545704250430221 -25.331740547879768 0 0 0
419 0 7 1.575 9.63173096625988 6.568928676186044 -22.04975293611424 0 0 0
422 0 7 1.575 11.729511229122846 4.436448165237311 -24.221995558010775 0 0 0
375 0 6 1.05 8.539939647579295 1.257190840830352 -21.017893544800405 0 0 0
376 0 7 1.575 8.574729441048898 3.3832735853757927 -23.106119844004315 0 0 0
381 0 7 1.575 10.666406707005889 1.2720060037737435 -23.113410131332067 0 0 0
82 0 6 1.05 8.544104389103403 5.492406543255031 -25.285996142595813 0 0 0
382 0 6 1.05 10.709356868583548 3.380093288169368 -20.991458945071887 0 0 0
379 0 8 -1.05 10.623409655548903 1.3108211545551969 -21.034108140363003 0 0 0
420 0 8 -1.05 10.77049580044891 5.531705569998906 -20.83794314121647 0 0 0
380 0 8 -1.05 10.610700120229687 3.321894482022104 -23.057074215288857 0 0 0
378 0 8 -1.05 8.626820637812008 3.349011529107223 -21.030398869475956 0 0 0
28 0 8 -1.05 10.686394652699446 1.2792479722149745 -25.079552372480332 0 0 0
417 0 8 -1.05 8.477246725126516 5.408701211328353 -23.031225210867166 0 0 0
22 0 8 -1.05 8.55933970400046 3.400443319429403 -25.072831090327426 0 0 0
377 0 8 -1.05 8.623899700595366 1.3363931977571413 -23.07054145502415 0 0 0
632 0 7 1.575 11.722282141499559 0.19978309112207188 -19.948841889648357 0 0 0
85 0 8 -1.05 8.624157462543547 7.592531388414696 -25.321133953630635 0 0 0
89 0 6 1.05 10.709726955649124 7.6214750331433825 -25.25852421629405 0 0 0
418 0 8 -1.05 8.502227235626856 7.624064300901659 -20.83804399776917 0 0 0
421 0 8 -1.05 10.709827944719393 7.757987350757485 -23.066413447150246 0 0 0
430 0 7 1.575 14.930108594019583 7.629424549295958 -20.989985751496807 0 0 0
428 0 8 -1.05 14.907501441207568 7.645638840329207 -22.959509665345177 0 0 0
95 0 7 1.575 13.880689964174575 6.567238611137341 -26.337780931585236 0 0 0
35 0 8 -1.05 12.897278548365808 3.3881834546207954 -25.317273650827904 0 0 0
385 0 7 1.575 13.871160849633519 2.3282599540558504 -22.106393031591516 0 0 0
423 0 7 1.575 12.801789911443612 5.488902422814371 -21.013576081211436 0 0 0
32 0 6 1.05 12.786899740571254 1.2288531451975702 -25.307227541518394 0 0 0
425 0 8 -1.05 12.76243065499789 5.517658139690123 -22.972733487836617 0 0 0
383 0 8 -1.05 12.674899506706716 1.1681634857584031 -23.04362138138335 0 0 0
384 0 8 -1.05 12.824289836555561 3.4861929505925575 -20.92961389138817 0 0 0
682 0 7 1.575 15.967613074731405 4.452930617701018 -19.918651501338754 0 0 0
386 0 8 -1.05 15.01354028754186 1.2970064841431939 -20.918126155558863 0 0 0
98 0 8 -1.05 14.983290209571141 5.448592576743284 -25.19564780541446 0 0 0
387 0 8 -1.05 14.943496046729791 3.462681051976813 -23.18929646117021 0 0 0
39 0 7 1.575 14.933598836755351 3.4007403380906154 -25.26599978181354 0 0 0
429 0 6 1.05 14.890975819526485 5.534526435616318 -23.154129197481176 0 0 0
388 0 7 1.575 15.96059814149434 0.21651406338087212 -24.218207635986165 0 0 0
427 0 8 -1.05 14.814846321941268 5.616292362903039 -20.904909288497773 0 0 0
36 0 8 -1.05 14.844653017379372 1.4243355198981944 -25.175388571912922 0 0 0
426 0 8 -1.05 12.91331598265918 7.518853827937019 -20.917359931055913 0 0 0
424 0 6 1.05 12.803699282711412 7.602339273818189 -23.1642672535465 0 0 0
92 0 8 -1.05 12.810152240650913 7.713961853897779 -25.191808400495237 0 0 0
402 0 7 1.575 24.474641816655193 0.21852683345236057 -24.19347462469678 0 0 0
443 0 6 1.05 23.379717315778777 5.520414372363488 -23.065468318800953 0 0 0
59 0 7 1.575 23.40819492268866 3.411516200113097 -25.197143819298972 0 0 0
401 0 8 -1.05 23.451833095174695 3.4612518567751724 -23.077951508675486 0 0 0
118 0 8 -1.05 23.483101636982127 5.460393559805703 -25.107206186151164 0 0 0
400 0 8 -1.05 23.38429071048643 1.1790415380732084 -20.887476383274937 0 0 0
56 0 8 -1.05 23.28638618263463 1.4028234958771237 -25.092039764300942 0 0 0
441 0 8 -1.05 23.349011390311905 5.665299472725116 -20.881199850420572 0 0 0
696 0 7 1.575 24.460173340298272 4.4584656939665805 -19.92456620711979 0 0 0
444 0 7 1.575 23.39885572175242 7.64959552178787 -20.949872806789994 0 0 0
442 0 8 -1.05 23.313315589747514 7.684635697709153 -22.932617800503234 0 0 0
435 0 8 -1.05 19.26997221128529 7.765257240597001 -22.99967798375687 0 0 0
432 0 8 -1.05 16.96299233910846 7.683977237488102 -20.93362946800105 0 0 0
112 0 8 -1.05 21.304446711367568 7.644797770810081 -25.05689955886021 0 0 0
438 0 7 1.575 21.28329308248666 7.6276440131414 -23.1054229702006 0 0 0
109 0 6 1.05 19.214485239256902 7.652074504205864 -25.302072573419657 0 0 0
440 0 8 -1.05 21.385953217895874 7.6228398629346215 -20.963255332659887 0 0 0
105 0 8 -1.05 17.044767242931883 7.53744060919227 -25.29899013714536 0 0 0
646 0 7 1.575 20.20954722495578 0.2271802494133738 -19.949618892541537 0 0 0
391 0 8 -1.05 17.019326378540086 1.2829773253700887 -22.962495875709354 0 0 0
42 0 8 -1.05 16.959587747398487 3.475534679256372 -25.213194059026716 0 0 0
431 0 8 -1.05 16.96417791345797 5.4859697711750925 -23.173962027372525 0 0 0
48 0 8 -1.05 19.22375193128176 1.2105054306923932 -25.139040491270684 0 0 0
398 0 8 -1.05 21.1906708004845 3.369512427060825 -20.827964059171403 0 0 0
392 0 8 -1.05 17.139556773779802 3.288684769550324 -20.872112613787905 0 0 0
397 0 8 -1.05 21.206775706525594 1.2176105546306109 -23.103393985464763 0 0 0
394 0 8 -1.05 19.140274939048084 3.413307191626268 -22.95157623218218 0 0 0
439 0 8 -1.05 21.25638089649735 5.6310429515762515 -23.005836994774402 0 0 0
434 0 8 -1.05 19.12812473138935 5.427501361542294 -20.892547679162256 0 0 0
393 0 8 -1.05 19.033319822533077 1.4025677629149491 -20.88894181055078 0 0 0
396 0 7 1.575 19.157057281174648 3.4224506312601735 -21.001603725989465 0 0 0
102 0 7 1.575 17.03398664607022 5.5060936605167985 -25.25890957322992 0 0 0
52 0 7 1.575 21.271304356384366 1.2740464789866697 -25.216929471130474 0 0 0
395 0 6 1.05 19.139389005414568 1.2937716003963564 -23.11678700821087 0 0 0
390 0 6 1.05 17.0425221642687 3.388708556497951 -23.16845959248037 0 0 0
437 0 6 1.05 21.257728905875226 5.508090886176035 -20.97896666477454 0 0 0
389 0 7 1.575 17.016838600644125 1.2734439064671585 -21.011121512076638 0 0 0
436 0 7 1.575 20.211024951693815 4.48064819855543 -24.19814710512282 0 0 0
399 0 7 1.575 22.327273047324585 2.3294523831791327 -22.058628356394298 0 0 0
433 0 7 1.575 18.09889397003979 6.5604456815872085 -22.094320967385773 0 0 0
55 0 8 -1.05 21.394533931878883 3.2942623514841425 -25.099096437137476 0 0 0
106 0 8 -1.05 19.005698449374737 5.596104968346483 -25.15975669143081 0 0 0
45 0 7 1.575 18.123356532339095 2.3152552104034703 -26.304520338312383 0 0 0
115 0 7 1.575 22.383641251022254 6.567288987997694 -26.276735583732627 0 0 0
125 0 7 1.575 1.1437585230731633 10.808387428370935 -26.274764024605883 0 0 0
135 0 8 -1.05 4.365541366853753 11.826336848257709 -25.284257768013262 0 0 0
455 0 7 1.575 5.389672834848985 10.826703076277902 -22.047481900474974 0 0 0
445 0 7 1.575 0.062281075668132166 9.767597426614191 -20.9590357334156 0 0 0
446 0 6 1.05 0.08291564371104267 11.881963346748906 -23.116480515166977 0 0 0
451 0 7 1.575 2.196938626185479 9.77968567405554 -23.087701518181696 0 0 0
132 0 6 1.05 4.309825376515045 9.741417029829963 -25.22685831278535 0 0 0
452 0 6 1.05 2.1818034463485736 11.91200170606276 -20.990914698887124 0 0 0
449 0 8 -1.05 2.078896203032647 9.784178935099686 -20.983051180754238 0 0 0
450 0 8 -1.05 2.1998713568864585 11.786490679817264 -23.02721947930151 0 0 0
453 0 8 -1.05 4.191248143494269 9.715820012676808 -23.011447062048173 0 0 0
448 0 8 -1.05 0.10951422202949142 11.759349566693546 -20.883169717936536 0 0 0
454 0 8 -1.05 4.33134707340822 11.961316058931446 -20.849782313145816 0 0 0
128 0 8 -1.05 2.1669448695220312 9.678099483192343 -25.05556495293098 0 0 0
122 0 8 -1.05 0.076668357800314 11.982755738622899 -25.154013330136543 0 0 0