LAMMPS data file via write_data, version 17 Feb 2022, timestep = 21

4320 atoms
10 atom types
144 bonds
6 bond types
216 angles
6 angle types
0 dihedrals
2 dihedral types
36 impropers
2 improper types

0.239999 25.679999000000002 xlo xhi
0.239999 25.679999000000002 ylo yhi
-32.391176 66.805898 zlo zhi

Masses

1 12.011
2 1.008
3 15.9994
4 15.9994
5 1.008
6 55.845
7 55.845
8 15.9994
9 15.9994
10 1.008

Pair Coeffs # lj/cut/coul/long

1 0.0988 3.31521
2 0.0161 2.4473
3 0.1463 3.04812
4 0.093 3.24287
5 0.0047 0.537925
6 9.0298e-07 4.9062
7 9.0298e-07 4.9062
8 0.1554 3.16554
9 0.1554 3.16554
10 0 0

Bond Coeffs # harmonic

1 361.8 1.105
2 652.57 1.218
3 383.13 1.351
4 563.51 0.973
5 554.135 1
6 0 2.08

Angle Coeffs # harmonic

1 51.617 106.55
2 65.93 123.65
3 65.262 109.49
4 115.745 122.1
5 118.817 130.25
6 30 109.47

Dihedral Coeffs # fourier

1 1 2.3 2 180
2 2 2.3 2 180 1.9 1 0

Improper Coeffs # cvff

1 10.5 -1 2
2 10.5 -1 2

Atoms # full

476 0 1 0.731 3.387130509431616 7.6570372765550685 -19.456231546416664 0 0 0
477 0 2 -0.123 3.421073535503825 7.634209914224981 -20.553500467156507 0 0 0
478 0 3 -0.804 4.1276850081346215 8.411282104240776 -18.848188151102185 0 0 0
479 0 3 -0.804 2.6093192314585076 6.932493382762551 -18.861018700112353 0 0 0
3826 0 1 0.731 7.545922621596577 3.4356931898030925 -19.456797046399274 0 1 0
3827 0 2 -0.123 7.525461748860275 3.456315128843511 -20.553909472569536 0 1 0
3828 0 3 -0.804 8.303256904821588 4.176710797995257 -18.854517792411713 0 1 0
3829 0 3 -0.804 6.801946760631428 2.6814372871402266 -18.855252932644426 0 1 0
958 0 3 -0.804 12.607685008134611 8.411282104240764 -18.848188151102192 0 0 0
956 0 1 0.731 11.86713050943165 7.657037276555099 -19.456231546416664 0 0 0
957 0 2 -0.123 11.901073535503823 7.634209914224979 -20.553500467156514 0 0 0
959 0 3 -0.804 11.089319231458493 6.932493382762536 -18.861018700112343 0 0 0
4309 0 3 -0.804 15.281946760631458 2.6814372871402545 -18.855252932644444 0 1 0
4306 0 1 0.731 16.025922621596518 3.435693189803034 -19.456797046399277 0 1 0
4307 0 2 -0.123 16.005461748860277 3.4563151288435168 -20.55390947256954 0 1 0
4308 0 3 -0.804 16.783256904821613 4.176710797995286 -18.8545177924117 0 1 0
3346 0 1 0.731 24.505922621596586 3.4356931898030987 -19.45679704639928 -1 1 0
3347 0 2 -0.123 24.485461748860278 3.456315128843511 -20.55390947256954 -1 1 0
3348 0 3 -0.804 25.26325690482159 4.176710797995254 -18.854517792411727 -1 1 0
3349 0 3 -0.804 23.76194676063143 2.681437287140226 -18.855252932644422 -1 1 0
1436 0 1 0.731 20.347130509431583 7.6570372765550285 -19.456231546416664 0 0 0
1437 0 2 -0.123 20.38107353550383 7.634209914224983 -20.55350046715651 0 0 0
1438 0 3 -0.804 21.087685008134645 8.411282104240794 -18.848188151102168 0 0 0
1439 0 3 -0.804 19.569319231458525 6.93249338276257 -18.861018700112368 0 0 0
946 0 1 0.731 7.545922621596549 11.915693189803067 -19.456797046399274 0 0 0
947 0 2 -0.123 7.525461748860279 11.936315128843514 -20.55390947256954 0 0 0
949 0 3 -0.804 6.801946760631443 11.161437287140242 -18.855252932644433 0 0 0
948 0 3 -0.804 8.303256904821602 12.656710797995274 -18.854517792411706 0 0 0
1916 0 1 0.731 3.3871305094316133 16.137037276555063 -19.45623154641666 0 0 0
1917 0 2 -0.123 3.4210735355038278 16.11420991422498 -20.55350046715651 0 0 0
1918 0 3 -0.804 4.127685008134625 16.891282104240773 -18.848188151102182 0 0 0
1919 0 3 -0.804 2.609319231458509 15.41249338276255 -18.861018700112353 0 0 0
2398 0 3 -0.804 12.607685008134615 16.89128210424077 -18.848188151102185 0 0 0
2396 0 1 0.731 11.867130509431636 16.137037276555084 -19.456231546416667 0 0 0
2397 0 2 -0.123 11.901073535503823 16.11420991422498 -20.55350046715651 0 0 0
2399 0 3 -0.804 11.0893192314585 15.412493382762543 -18.861018700112353 0 0 0
1426 0 1 0.731 16.025922621596592 11.915693189803113 -19.456797046399277 0 0 0
1427 0 2 -0.123 16.005461748860277 11.936315128843509 -20.553909472569543 0 0 0
1429 0 3 -0.804 15.281946760631419 11.16143728714022 -18.855252932644415 0 0 0
1428 0 3 -0.804 16.78325690482158 12.65671079799525 -18.85451779241172 0 0 0
466 0 1 0.731 24.505922621596564 11.915693189803081 -19.456797046399277 -1 0 0
467 0 2 -0.123 24.48546174886028 11.93631512884351 -20.553909472569543 -1 0 0
469 0 3 -0.804 23.76194676063143 11.161437287140231 -18.855252932644426 -1 0 0
468 0 3 -0.804 25.26325690482159 12.656710797995267 -18.85451779241172 -1 0 0
2876 0 1 0.731 20.347130509431686 16.13703727655514 -19.45623154641666 0 0 0
2877 0 2 -0.123 20.38107353550381 16.11420991422498 -20.55350046715651 0 0 0
2878 0 3 -0.804 21.087685008134596 16.891282104240744 -18.848188151102207 0 0 0
2879 0 3 -0.804 19.56931923145847 15.41249338276252 -18.86101870011233 0 0 0
3356 0 1 0.731 3.3871305094316404 24.617037276555088 -19.45623154641666 0 0 0
3357 0 2 -0.123 3.4210735355038255 24.59420991422498 -20.55350046715651 0 0 0
3359 0 3 -0.804 2.609319231458495 23.892493382762538 -18.861018700112346 0 0 0
2386 0 1 0.731 7.545922621596526 20.39569318980304 -19.45679704639928 0 0 0
2387 0 2 -0.123 7.525461748860283 20.41631512884351 -20.553909472569536 0 0 0
2388 0 3 -0.804 8.303256904821607 21.13671079799528 -18.854517792411702 0 0 0
2389 0 3 -0.804 6.8019467606314565 19.64143728714025 -18.855252932644444 0 0 0
3358 0 3 -0.804 4.1276850081346135 25.371282104240763 -18.848188151102185 0 0 0
3836 0 1 0.731 11.867130509431634 24.617037276555088 -19.456231546416667 0 0 0
3837 0 2 -0.123 11.901073535503825 24.594209914224983 -20.553500467156507 0 0 0
3839 0 3 -0.804 11.089319231458502 23.89249338276255 -18.861018700112353 0 0 0
3838 0 3 -0.804 12.607685008134615 25.371282104240766 -18.84818815110219 0 0 0
2866 0 1 0.731 16.02592262159657 20.39569318980308 -19.45679704639927 0 0 0
2867 0 2 -0.123 16.00546174886028 20.416315128843507 -20.553909472569543 0 0 0
2868 0 3 -0.804 16.783256904821595 21.136710797995264 -18.854517792411702 0 0 0
2869 0 3 -0.804 15.281946760631433 19.641437287140228 -18.855252932644426 0 0 0
1906 0 1 0.731 24.50592262159657 20.39569318980308 -19.45679704639928 -1 0 0
1907 0 2 -0.123 24.485461748860285 20.416315128843507 -20.55390947256954 -1 0 0
1908 0 3 -0.804 25.263256904821592 21.136710797995264 -18.85451779241172 -1 0 0
1909 0 3 -0.804 23.76194676063144 19.64143728714023 -18.855252932644422 -1 0 0
4319 0 3 -0.804 19.56931923145851 23.89249338276256 -18.861018700112357 0 0 0
4316 0 1 0.731 20.34713050943161 24.61703727655507 -19.456231546416664 0 0 0
4317 0 2 -0.123 20.38107353550382 24.59420991422499 -20.55350046715651 0 0 0
4318 0 3 -0.804 21.08768500813463 25.371282104240784 -18.848188151102175 0 0 0
33 0 8 -1.05 4.125745803970586 6.830964960187918 -16.3816865676486 0 0 0
76 2 7 1.575 2.2003028492738324 4.523382649931127 -14.626861207159722 0 0 0
78 2 7 1.575 2.183428408423096 6.747986154076326 -17.026159269615825 0 0 0
82 0 9 -1 2.079764499540833 4.644199802727793 -16.59838014913952 0 0 0
96 0 8 -1.05 2.0721140268244254 6.499054127831514 -14.37694666700255 0 0 0
480 0 10 0.425 2.6716250876183927 4.04667111551162 -17.203506217677525 0 0 0
62 1 7 1.575 3.2614783675117978 7.700378969761903 -13.537212944086246 0 0 0
2934 0 8 -1.05 2.2946554400850427 25.624326588256512 -16.45162099421339 0 0 0
2943 1 6 1.575 1.10356507858817 1.3765473342247696 -15.626861839109376 0 1 0
2967 0 8 -1.05 2.2750017665083435 2.489598123407315 -14.443165357311578 0 1 0
2977 0 8 -1.05 4.2317545599332345 4.446102692172587 -14.440999181866543 0 1 0
537 1 7 1.575 5.342289628412139 5.617010384852587 -15.625733070994453 0 0 0
545 2 7 1.575 8.454417374572246 4.535355152810857 -17.004096049982085 0 0 0
553 2 7 1.575 8.57489899084998 6.628112827684836 -14.609975718344119 0 0 0
582 0 8 -1.05 8.724142507469532 6.480882212744277 -16.523335287652017 0 0 0
585 0 8 -1.05 8.70175471756629 4.6471939157441655 -14.389868628069452 0 0 0
591 0 8 -1.05 6.516027432152292 6.729236577586137 -14.443635874480522 0 0 0
950 0 10 0.425 6.907082233047912 8.292477532232343 -17.198944727853423 0 0 0
3385 0 8 -1.05 6.53637971916384 4.422299018424179 -16.44150766612882 0 1 0
3405 0 8 -1.05 8.36868927744241 2.5894807169736103 -16.38810606071973 0 1 0
3429 2 7 1.575 6.439714093640921 0.28278783866749085 -14.620056431570978 0 1 0
3430 2 7 1.575 4.3342264786082145 2.389302918841475 -14.603484070434732 0 1 0
3432 2 7 1.575 4.216665503572073 0.2981087682607969 -16.99747129387248 0 1 0
3439 2 7 1.575 6.420499641747137 2.504771617421765 -17.012233631597653 0 1 0
3446 0 8 -1.05 4.460294716006882 0.4084819174994752 -14.386804231124959 0 1 0
3450 0 8 -1.05 4.478805864025016 2.243407362222852 -16.51610278703056 0 1 0
3451 0 8 -1.05 8.472722924764811 25.64531302662252 -14.44236876755227 0 0 0
3464 0 8 -1.05 6.312581972084077 2.259194380430847 -14.377508837130916 0 1 0
3469 0 9 -1 6.317035325024279 0.4079250664160683 -16.590053721459565 0 1 0
3420 1 6 1.575 7.502623994901671 3.4624035792035257 -13.538480708440707 0 1 0
59 1 7 1.575 1.1409610971550086 5.581276585172734 -11.436995824666441 0 0 0
2947 2 7 1.575 2.1864727383214952 2.3910407957756137 -12.428844739784891 0 1 0
2973 0 8 -1.05 2.302289402020153 4.417163252926257 -12.469448373844825 0 1 0
2980 0 8 -1.05 2.1115950327740203 0.3703349418716528 -12.453817241755734 0 1 0
2988 0 8 -1.05 4.219631635229528 2.500037101215558 -12.47798566368781 0 1 0
546 2 7 1.575 6.4276576975359685 6.629875407124513 -12.42916171114856 0 0 0
557 2 7 1.575 4.329930279194891 4.534284748625327 -12.427968774456476 0 0 0
563 0 8 -1.05 8.459495709007996 6.739671648813866 -12.478734191565763 0 0 0
574 0 8 -1.05 6.351473306153203 4.609750085544303 -12.453822171263516 0 0 0
587 0 8 -1.05 4.409051561007589 6.553228609487085 -12.449522868644268 0 0 0
3421 1 7 1.575 5.381275937628445 1.3408112615576484 -11.436403677501742 0 1 0
3440 2 7 1.575 8.570841960585687 0.2933001902121711 -12.428936362176518 0 1 0
3444 0 8 -1.05 8.648126448061355 2.3129981157726656 -12.450166794367245 0 1 0
3459 0 8 -1.05 6.542164960616092 25.61722589786749 -12.470890472176832 0 0 0
513 0 8 -1.05 12.605745803970587 6.830964960187918 -16.381686567648597 0 0 0
556 2 7 1.575 10.680302849273833 4.5233826499311265 -14.626861207159724 0 0 0
558 2 7 1.575 10.663428408423096 6.747986154076328 -17.026159269615828 0 0 0
562 0 9 -1 10.559764499540833 4.644199802727793 -16.59838014913952 0 0 0
576 0 8 -1.05 10.552114026824425 6.499054127831514 -14.37694666700255 0 0 0
960 0 10 0.425 11.151625087618392 4.046671115511618 -17.20350621767752 0 0 0
542 1 7 1.575 11.7414783675118 7.700378969761903 -13.537212944086248 0 0 0
3414 0 8 -1.05 10.774655440085043 25.62432658825652 -16.45162099421339 0 0 0
3423 1 6 1.575 9.583565078588174 1.3765473342247663 -15.626861839109374 0 1 0
3447 0 8 -1.05 10.755001766508345 2.4895981234073137 -14.44316535731158 0 1 0
3457 0 8 -1.05 12.711754559933233 4.446102692172588 -14.440999181866545 0 1 0
3910 2 7 1.575 12.814226478608216 2.3893029188414765 -14.603484070434734 0 1 0
3912 2 7 1.575 12.696665503572072 0.29810876826079863 -16.997471293872483 0 1 0
3926 0 8 -1.05 12.940294716006887 0.4084819174994797 -14.386804231124959 0 1 0
3930 0 8 -1.05 12.958805864025015 2.2434073622228543 -16.51610278703056 0 1 0
539 1 7 1.575 9.62096109715501 5.581276585172734 -11.436995824666445 0 0 0
3427 2 7 1.575 10.666472738321497 2.3910407957756115 -12.428844739784891 0 1 0
3453 0 8 -1.05 10.782289402020153 4.417163252926258 -12.469448373844825 0 1 0
3460 0 8 -1.05 10.591595032774022 0.37033494187165156 -12.453817241755736 0 1 0
3468 0 8 -1.05 12.699631635229528 2.5000371012155567 -12.47798566368781 0 1 0
1037 2 7 1.575 12.80993027919489 4.5342847486253275 -12.427968774456476 0 0 0
1067 0 8 -1.05 12.88905156100759 6.553228609487086 -12.449522868644268 0 0 0
3900 1 6 1.575 15.98262399490167 3.4624035792035257 -13.538480708440707 0 1 0
1017 1 7 1.575 13.822289628412136 5.617010384852589 -15.625733070994452 0 0 0
1025 2 7 1.575 16.934417374572245 4.53535515281086 -17.004096049982085 0 0 0
1033 2 7 1.575 17.054898990849985 6.628112827684836 -14.609975718344119 0 0 0
1062 0 8 -1.05 17.204142507469534 6.480882212744277 -16.523335287652017 0 0 0
1065 0 8 -1.05 17.18175471756629 4.647193915744165 -14.389868628069454 0 0 0
1071 0 8 -1.05 14.996027432152292 6.729236577586137 -14.443635874480524 0 0 0
1430 0 10 0.425 15.387082233047906 8.292477532232343 -17.19894472785342 0 0 0
3865 0 8 -1.05 15.016379719163842 4.422299018424177 -16.44150766612882 0 1 0
3885 0 8 -1.05 16.848689277442418 2.5894807169736085 -16.388106060719725 0 1 0
3909 2 7 1.575 14.91971409364092 0.28278783866749274 -14.620056431570976 0 1 0
3919 2 7 1.575 14.900499641747137 2.504771617421766 -17.01223363159765 0 1 0
3931 0 8 -1.05 16.95272292476481 25.64531302662252 -14.442368767552273 0 0 0
3944 0 8 -1.05 14.792581972084077 2.259194380430849 -14.377508837130918 0 1 0
3949 0 9 -1 14.797035325024282 0.40792506641607007 -16.59005372145956 0 1 0
1026 2 7 1.575 14.907657697535969 6.629875407124512 -12.42916171114856 0 0 0
1043 0 8 -1.05 16.939495709007993 6.739671648813867 -12.478734191565767 0 0 0
1054 0 8 -1.05 14.831473306153201 4.609750085544304 -12.453822171263518 0 0 0
3901 1 7 1.575 13.861275937628445 1.3408112615576497 -11.43640367750174 0 1 0
3920 2 7 1.575 17.05084196058569 0.29330019021216996 -12.428936362176517 0 1 0
3924 0 8 -1.05 17.128126448061355 2.312998115772666 -12.450166794367247 0 1 0
3939 0 8 -1.05 15.022164960616095 25.617225897867485 -12.47089047217683 0 0 0
57 1 7 1.575 22.30228962841214 5.617010384852586 -15.625733070994453 -1 0 0
65 2 7 1.575 25.414417374572245 4.535355152810859 -17.00409604998208 -1 0 0
73 2 7 1.575 25.53489899084998 6.628112827684835 -14.609975718344119 -1 0 0
102 0 8 -1.05 0.24414250746953314 6.480882212744275 -16.523335287652017 0 0 0
105 0 8 -1.05 25.66175471756629 4.647193915744165 -14.389868628069452 -1 0 0
111 0 8 -1.05 23.476027432152293 6.729236577586136 -14.443635874480524 -1 0 0
470 0 10 0.425 23.86708223304791 8.292477532232342 -17.198944727853423 -1 0 0
2905 0 8 -1.05 23.49637971916384 4.422299018424179 -16.441507666128828 -1 1 0
2925 0 8 -1.05 25.328689277442415 2.5894807169736076 -16.38810606071973 -1 1 0
2949 2 7 1.575 23.39971409364092 0.28278783866749135 -14.620056431570978 -1 1 0
2950 2 7 1.575 21.294226478608216 2.389302918841476 -14.603484070434734 -1 1 0
2952 2 7 1.575 21.17666550357207 0.2981087682607964 -16.99747129387248 -1 1 0
2959 2 7 1.575 23.38049964174714 2.5047716174217642 -17.012233631597656 -1 1 0
2966 0 8 -1.05 21.420294716006893 0.4084819174994845 -14.386804231124962 -1 1 0
2970 0 8 -1.05 21.438805864025014 2.2434073622228525 -16.51610278703056 -1 1 0
2971 0 8 -1.05 25.43272292476481 25.645313026622517 -14.44236876755227 -1 0 0
2984 0 8 -1.05 23.272581972084073 2.259194380430844 -14.37750883713092 -1 1 0
2989 0 9 -1 23.277035325024276 0.4079250664160744 -16.59005372145956 -1 1 0
2940 1 6 1.575 24.462623994901673 3.4624035792035275 -13.538480708440705 -1 1 0
993 0 8 -1.05 21.085745803970585 6.830964960187919 -16.3816865676486 0 0 0
1036 2 7 1.575 19.160302849273837 4.5233826499311265 -14.626861207159722 0 0 0
1038 2 7 1.575 19.143428408423095 6.747986154076327 -17.02615926961582 0 0 0
1042 0 9 -1 19.039764499540833 4.644199802727797 -16.59838014913952 0 0 0
1056 0 8 -1.05 19.032114026824427 6.499054127831515 -14.37694666700255 0 0 0
1440 0 10 0.425 19.631625087618396 4.046671115511616 -17.203506217677525 0 0 0
1022 1 7 1.575 20.221478367511796 7.700378969761899 -13.537212944086246 0 0 0
3894 0 8 -1.05 19.254655440085045 25.624326588256512 -16.45162099421339 0 0 0
3903 1 6 1.575 18.06356507858817 1.376547334224774 -15.626861839109374 0 1 0
3927 0 8 -1.05 19.235001766508343 2.489598123407314 -14.44316535731158 0 1 0
3937 0 8 -1.05 21.191754559933234 4.446102692172588 -14.440999181866545 0 1 0
66 2 7 1.575 23.38765769753597 6.629875407124513 -12.42916171114856 -1 0 0
77 2 7 1.575 21.289930279194895 4.534284748625326 -12.427968774456474 -1 0 0
83 0 8 -1.05 25.419495709007997 6.739671648813869 -12.478734191565765 -1 0 0
94 0 8 -1.05 23.311473306153204 4.609750085544303 -12.453822171263518 -1 0 0
107 0 8 -1.05 21.36905156100759 6.553228609487087 -12.449522868644271 -1 0 0
2941 1 7 1.575 22.341275937628446 1.340811261557649 -11.436403677501742 -1 1 0
2960 2 7 1.575 25.53084196058569 0.2933001902121711 -12.428936362176517 -1 1 0
2964 0 8 -1.05 25.608126448061356 2.312998115772665 -12.450166794367247 -1 1 0
2979 0 8 -1.05 23.502164960616092 25.61722589786749 -12.47089047217683 -1 0 0
1019 1 7 1.575 18.100961097155018 5.581276585172735 -11.436995824666441 0 0 0
3907 2 7 1.575 19.146472738321496 2.391040795775614 -12.42884473978489 0 1 0
3933 0 8 -1.05 19.26228940202015 4.417163252926259 -12.469448373844825 0 1 0
3940 0 8 -1.05 19.07159503277402 0.3703349418716529 -12.453817241755738 0 1 0
3948 0 8 -1.05 21.179631635229526 2.500037101215558 -12.477985663687813 0 1 0
54 0 8 -1.05 2.2946554400850445 8.664326588256515 -16.45162099421339 0 0 0
63 1 6 1.575 1.1035650785881685 9.856547334224775 -15.626861839109377 0 0 0
87 0 8 -1.05 2.2750017665083435 10.969598123407314 -14.443165357311578 0 0 0
1920 0 10 0.425 2.6716250876183887 12.526671115511622 -17.203506217677525 0 0 0
525 0 8 -1.05 8.368689277442416 11.06948071697361 -16.38810606071973 0 0 0
549 2 7 1.575 6.43971409364092 8.76278783866749 -14.620056431570974 0 0 0
550 2 7 1.575 4.334226478608216 10.869302918841477 -14.603484070434734 0 0 0
552 2 7 1.575 4.216665503572073 8.778108768260799 -16.99747129387248 0 0 0
559 2 7 1.575 6.420499641747135 10.984771617421767 -17.01223363159765 0 0 0
566 0 8 -1.05 4.460294716006884 8.88848191749948 -14.386804231124957 0 0 0
570 0 8 -1.05 4.478805864025015 10.723407362222853 -16.51610278703056 0 0 0
571 0 8 -1.05 8.472722924764811 8.68531302662252 -14.442368767552269 0 0 0
584 0 8 -1.05 6.312581972084076 10.739194380430847 -14.377508837130918 0 0 0
589 0 9 -1 6.317035325024274 8.887925066416075 -16.590053721459565 0 0 0
540 1 6 1.575 7.502623994901674 11.942403579203528 -13.538480708440707 0 0 0
67 2 7 1.575 2.1864727383214935 10.871040795775613 -12.428844739784891 0 0 0
100 0 8 -1.05 2.1115950327740176 8.850334941871653 -12.453817241755736 0 0 0
108 0 8 -1.05 4.219631635229526 10.980037101215558 -12.477985663687813 0 0 0
541 1 7 1.575 5.381275937628444 9.82081126155765 -11.436403677501739 0 0 0
560 2 7 1.575 8.570841960585685 8.773300190212174 -12.428936362176517 0 0 0
564 0 8 -1.05 8.648126448061355 10.792998115772667 -12.450166794367245 0 0 0
579 0 8 -1.05 6.542164960616092 8.657225897867484 -12.47089047217683 0 0 0
97 0 8 -1.05 4.231754559933234 12.926102692172588 -14.440999181866543 0 0 0
1473 0 8 -1.05 4.125745803970583 15.31096496018792 -16.381686567648597 0 0 0
1516 2 7 1.575 2.2003028492738346 13.003382649931128 -14.626861207159722 0 0 0
1518 2 7 1.575 2.183428408423094 15.227986154076328 -17.02615926961583 0 0 0
1522 0 9 -1 2.0797644995408358 13.124199802727793 -16.598380149139523 0 0 0
1536 0 8 -1.05 2.072114026824426 14.979054127831516 -14.37694666700255 0 0 0
1502 1 7 1.575 3.2614783675117973 16.1803789697619 -13.537212944086246 0 0 0
505 0 8 -1.05 6.536379719163845 12.902299018424179 -16.441507666128825 0 0 0
1977 1 7 1.575 5.342289628412137 14.09701038485259 -15.625733070994453 0 0 0
1985 2 7 1.575 8.454417374572246 13.015355152810859 -17.004096049982085 0 0 0
1993 2 7 1.575 8.574898990849983 15.108112827684836 -14.609975718344119 0 0 0
2022 0 8 -1.05 8.72414250746953 14.960882212744277 -16.523335287652017 0 0 0
2025 0 8 -1.05 8.701754717566288 13.127193915744165 -14.389868628069452 0 0 0
2031 0 8 -1.05 6.516027432152292 15.209236577586138 -14.443635874480524 0 0 0
2390 0 10 0.425 6.907082233047913 16.77247753223234 -17.198944727853423 0 0 0
93 0 8 -1.05 2.302289402020151 12.897163252926259 -12.469448373844825 0 0 0
1499 1 7 1.575 1.140961097155011 14.061276585172736 -11.436995824666441 0 0 0
1986 2 7 1.575 6.4276576975359685 15.109875407124512 -12.42916171114856 0 0 0
1997 2 7 1.575 4.329930279194891 13.014284748625325 -12.427968774456476 0 0 0
2003 0 8 -1.05 8.459495709007996 15.219671648813868 -12.478734191565765 0 0 0
2014 0 8 -1.05 6.351473306153203 13.089750085544303 -12.453822171263516 0 0 0
2027 0 8 -1.05 4.409051561007588 15.033228609487084 -12.449522868644268 0 0 0
534 0 8 -1.05 10.774655440085047 8.664326588256513 -16.45162099421339 0 0 0
543 1 6 1.575 9.58356507858817 9.856547334224771 -15.626861839109374 0 0 0
567 0 8 -1.05 10.755001766508345 10.969598123407316 -14.443165357311578 0 0 0
2400 0 10 0.425 11.151625087618395 12.526671115511615 -17.20350621767752 0 0 0
1030 2 7 1.575 12.814226478608216 10.869302918841477 -14.603484070434732 0 0 0
1032 2 7 1.575 12.696665503572072 8.778108768260797 -16.99747129387248 0 0 0
1046 0 8 -1.05 12.940294716006884 8.888481917499478 -14.386804231124957 0 0 0
1050 0 8 -1.05 12.958805864025015 10.723407362222854 -16.51610278703056 0 0 0
547 2 7 1.575 10.666472738321495 10.871040795775611 -12.428844739784891 0 0 0
580 0 8 -1.05 10.591595032774022 8.850334941871653 -12.453817241755736 0 0 0
588 0 8 -1.05 12.699631635229528 10.980037101215558 -12.477985663687813 0 0 0
577 0 8 -1.05 12.711754559933235 12.926102692172588 -14.44099918186654 0 0 0
1953 0 8 -1.05 12.605745803970587 15.310964960187917 -16.3816865676486 0 0 0
1996 2 7 1.575 10.680302849273833 13.003382649931126 -14.626861207159719 0 0 0
1998 2 7 1.575 10.663428408423092 15.227986154076326 -17.026159269615828 0 0 0
2002 0 9 -1 10.559764499540835 13.124199802727794 -16.598380149139516 0 0 0
2016 0 8 -1.05 10.552114026824427 14.979054127831516 -14.376946667002548 0 0 0
1982 1 7 1.575 11.741478367511794 16.180378969761904 -13.537212944086244 0 0 0
573 0 8 -1.05 10.782289402020153 12.897163252926257 -12.469448373844827 0 0 0
1979 1 7 1.575 9.620961097155012 14.061276585172735 -11.436995824666441 0 0 0
2477 2 7 1.575 12.80993027919489 13.014284748625327 -12.427968774456476 0 0 0
2507 0 8 -1.05 12.889051561007589 15.033228609487084 -12.449522868644266 0 0 0
1005 0 8 -1.05 16.848689277442418 11.069480716973603 -16.388106060719725 0 0 0
1029 2 7 1.575 14.919714093640918 8.762787838667489 -14.620056431570978 0 0 0
1039 2 7 1.575 14.900499641747139 10.984771617421766 -17.012233631597656 0 0 0
1051 0 8 -1.05 16.95272292476481 8.685313026622518 -14.44236876755227 0 0 0
1064 0 8 -1.05 14.792581972084081 10.73919438043085 -14.377508837130916 0 0 0
1069 0 9 -1 14.79703532502428 8.887925066416068 -16.590053721459565 0 0 0
1020 1 6 1.575 15.982623994901672 11.942403579203527 -13.538480708440707 0 0 0
1021 1 7 1.575 13.861275937628443 9.820811261557647 -11.436403677501744 0 0 0
1040 2 7 1.575 17.050841960585686 8.77330019021217 -12.428936362176517 0 0 0
1044 0 8 -1.05 17.128126448061355 10.792998115772667 -12.450166794367243 0 0 0
1059 0 8 -1.05 15.022164960616093 8.657225897867487 -12.47089047217683 0 0 0
985 0 8 -1.05 15.016379719163838 12.902299018424179 -16.44150766612882 0 0 0
2457 1 7 1.575 13.822289628412138 14.097010384852592 -15.625733070994452 0 0 0
2465 2 7 1.575 16.934417374572245 13.01535515281086 -17.00409604998208 0 0 0
2473 2 7 1.575 17.054898990849985 15.108112827684838 -14.609975718344117 0 0 0
2502 0 8 -1.05 17.204142507469534 14.960882212744275 -16.523335287652017 0 0 0
2505 0 8 -1.05 17.181754717566285 13.127193915744163 -14.389868628069452 0 0 0
2511 0 8 -1.05 14.99602743215229 15.209236577586138 -14.443635874480522 0 0 0
2870 0 10 0.425 15.387082233047911 16.77247753223234 -17.198944727853423 0 0 0
2466 2 7 1.575 14.907657697535969 15.109875407124516 -12.429161711148558 0 0 0
2483 0 8 -1.05 16.939495709007996 15.219671648813868 -12.478734191565762 0 0 0
2494 0 8 -1.05 14.831473306153203 13.089750085544305 -12.453822171263514 0 0 0
45 0 8 -1.05 25.328689277442418 11.069480716973604 -16.38810606071973 -1 0 0
69 2 7 1.575 23.39971409364092 8.762787838667489 -14.620056431570976 -1 0 0
70 2 7 1.575 21.294226478608213 10.869302918841477 -14.603484070434735 -1 0 0
72 2 7 1.575 21.17666550357207 8.778108768260795 -16.997471293872483 -1 0 0
79 2 7 1.575 23.380499641747136 10.984771617421766 -17.012233631597656 -1 0 0
86 0 8 -1.05 21.42029471600689 8.888481917499483 -14.386804231124962 -1 0 0
90 0 8 -1.05 21.438805864025014 10.723407362222854 -16.51610278703056 -1 0 0
91 0 8 -1.05 25.43272292476481 8.685313026622522 -14.44236876755227 -1 0 0
104 0 8 -1.05 23.27258197208408 10.739194380430853 -14.37750883713092 -1 0 0
109 0 9 -1 23.277035325024276 8.887925066416074 -16.59005372145956 -1 0 0
60 1 6 1.575 24.46262399490167 11.942403579203527 -13.538480708440709 -1 0 0
1014 0 8 -1.05 19.254655440085045 8.66432658825651 -16.45162099421339 0 0 0
1023 1 6 1.575 18.063565078588166 9.856547334224777 -15.626861839109372 0 0 0
1047 0 8 -1.05 19.235001766508343 10.969598123407314 -14.44316535731158 0 0 0
2880 0 10 0.425 19.63162508761839 12.526671115511624 -17.20350621767752 0 0 0
61 1 7 1.575 22.341275937628446 9.820811261557646 -11.436403677501739 -1 0 0
80 2 7 1.575 25.530841960585686 8.77330019021217 -12.428936362176517 -1 0 0
84 0 8 -1.05 25.608126448061356 10.792998115772665 -12.450166794367245 -1 0 0
99 0 8 -1.05 23.502164960616096 8.657225897867487 -12.470890472176832 -1 0 0
1027 2 7 1.575 19.1464727383215 10.871040795775611 -12.42884473978489 0 0 0
1060 0 8 -1.05 19.071595032774017 8.850334941871655 -12.453817241755736 0 0 0
1068 0 8 -1.05 21.17963163522953 10.98003710121556 -12.477985663687814 0 0 0
25 0 8 -1.05 23.496379719163848 12.902299018424177 -16.441507666128825 -1 0 0
1497 1 7 1.575 22.302289628412133 14.097010384852595 -15.625733070994453 -1 0 0
1505 2 7 1.575 25.414417374572245 13.015355152810862 -17.004096049982085 -1 0 0
1513 2 7 1.575 25.53489899084998 15.108112827684836 -14.609975718344119 -1 0 0
1542 0 8 -1.05 0.2441425074695296 14.960882212744277 -16.52333528765202 0 0 0
1545 0 8 -1.05 25.66175471756629 13.127193915744163 -14.38986862806945 -1 0 0
1551 0 8 -1.05 23.476027432152293 15.209236577586134 -14.44363587448052 -1 0 0
1910 0 10 0.425 23.867082233047913 16.77247753223234 -17.198944727853423 -1 0 0
1057 0 8 -1.05 21.191754559933234 12.926102692172588 -14.440999181866541 0 0 0
2433 0 8 -1.05 21.085745803970593 15.310964960187915 -16.381686567648597 0 0 0
2476 2 7 1.575 19.160302849273837 13.003382649931128 -14.626861207159719 0 0 0
2478 2 7 1.575 19.143428408423095 15.22798615407633 -17.02615926961583 0 0 0
2482 0 9 -1 19.03976449954084 13.12419980272779 -16.598380149139523 0 0 0
2496 0 8 -1.05 19.032114026824424 14.979054127831514 -14.37694666700255 0 0 0
2462 1 7 1.575 20.221478367511796 16.180378969761904 -13.537212944086242 0 0 0
1506 2 7 1.575 23.387657697535968 15.109875407124512 -12.42916171114856 -1 0 0
1517 2 7 1.575 21.289930279194895 13.014284748625327 -12.427968774456476 -1 0 0
1523 0 8 -1.05 25.419495709007997 15.219671648813863 -12.478734191565765 -1 0 0
1534 0 8 -1.05 23.3114733061532 13.089750085544303 -12.453822171263518 -1 0 0
1547 0 8 -1.05 21.369051561007588 15.033228609487088 -12.44952286864427 -1 0 0
1053 0 8 -1.05 19.262289402020155 12.897163252926259 -12.469448373844825 0 0 0
2459 1 7 1.575 18.100961097155015 14.061276585172736 -11.436995824666445 0 0 0
1494 0 8 -1.05 2.2946554400850423 17.14432658825652 -16.45162099421339 0 0 0
1503 1 6 1.575 1.1035650785881754 18.336547334224765 -15.626861839109376 0 0 0
1527 0 8 -1.05 2.275001766508344 19.449598123407313 -14.443165357311576 0 0 0
1537 0 8 -1.05 4.23175455993323 21.406102692172592 -14.440999181866541 0 0 0
2913 0 8 -1.05 4.125745803970587 23.790964960187917 -16.381686567648597 0 0 0
2956 2 7 1.575 2.2003028492738324 21.483382649931126 -14.626861207159726 0 0 0
2958 2 7 1.575 2.1834284084230937 23.70798615407633 -17.026159269615828 0 0 0
2962 0 9 -1 2.079764499540832 21.604199802727795 -16.59838014913952 0 0 0
2976 0 8 -1.05 2.0721140268244276 23.459054127831518 -14.376946667002546 0 0 0
3360 0 10 0.425 2.671625087618395 21.006671115511615 -17.20350621767753 0 0 0
2942 1 7 1.575 3.2614783675117978 24.660378969761904 -13.53721294408625 0 0 0
1945 0 8 -1.05 6.536379719163837 21.382299018424177 -16.441507666128825 0 0 0
1965 0 8 -1.05 8.368689277442416 19.54948071697361 -16.38810606071973 0 0 0
1989 2 7 1.575 6.439714093640919 17.242787838667493 -14.62005643157098 0 0 0
1990 2 7 1.575 4.3342264786082145 19.349302918841477 -14.603484070434732 0 0 0
1992 2 7 1.575 4.216665503572072 17.258108768260797 -16.99747129387248 0 0 0
1999 2 7 1.575 6.420499641747134 19.464771617421764 -17.012233631597645 0 0 0
2006 0 8 -1.05 4.460294716006884 17.36848191749948 -14.386804231124959 0 0 0
2010 0 8 -1.05 4.4788058640250155 19.203407362222855 -16.51610278703056 0 0 0
2011 0 8 -1.05 8.472722924764811 17.165313026622517 -14.44236876755227 0 0 0
2024 0 8 -1.05 6.31258197208408 19.21919438043085 -14.377508837130916 0 0 0
2029 0 9 -1 6.317035325024274 17.36792506641607 -16.59005372145956 0 0 0
1980 1 6 1.575 7.50262399490167 20.42240357920353 -13.53848070844071 0 0 0
3417 1 7 1.575 5.3422896284121375 22.57701038485259 -15.625733070994453 0 0 0
3425 2 7 1.575 8.454417374572246 21.495355152810863 -17.004096049982085 0 0 0
3433 2 7 1.575 8.57489899084998 23.58811282768484 -14.609975718344119 0 0 0
3462 0 8 -1.05 8.72414250746953 23.440882212744278 -16.52333528765202 0 0 0
3465 0 8 -1.05 8.701754717566287 21.607193915744162 -14.389868628069454 0 0 0
3471 0 8 -1.05 6.516027432152291 23.689236577586136 -14.44363587448052 0 0 0
3830 0 10 0.425 6.90708223304791 25.252477532232344 -17.19894472785342 0 0 0
1507 2 7 1.575 2.1864727383214944 19.35104079577561 -12.428844739784891 0 0 0
1533 0 8 -1.05 2.302289402020153 21.377163252926255 -12.469448373844825 0 0 0
1540 0 8 -1.05 2.111595032774023 17.330334941871655 -12.453817241755736 0 0 0
1548 0 8 -1.05 4.219631635229527 19.46003710121556 -12.477985663687814 0 0 0
2939 1 7 1.575 1.1409610971550108 22.541276585172735 -11.436995824666441 0 0 0
1981 1 7 1.575 5.381275937628443 18.300811261557648 -11.43640367750174 0 0 0
2000 2 7 1.575 8.570841960585684 17.253300190212173 -12.428936362176517 0 0 0
2004 0 8 -1.05 8.648126448061356 19.272998115772666 -12.450166794367245 0 0 0