LAMMPS data file via write_data, version 17 Feb 2022, timestep = 337

2925 atoms
10 atom types
36 bonds
6 bond types
54 angles
6 angle types
0 dihedrals
2 dihedral types
9 impropers
2 improper types

0 25.44 xlo xhi
0 25.44 ylo yhi
-41.458422 32.908 zlo zhi

Masses

1 12.011
2 1.008
3 15.9994
4 15.9994
5 1.008
6 55.845
7 55.845
8 15.9994
9 15.9994
10 1.008

Pair Coeffs # lj/cut/coul/long

1 0.0988 3.31521
2 0.0161 2.4473
3 0.1463 3.04812
4 0.093 3.24287
5 0.0047 0.537925
6 9.0298e-07 4.9062
7 9.0298e-07 4.9062
8 0.1554 3.16554
9 0.1554 3.16554
10 0 0

Bond Coeffs # harmonic

1 361.8 1.105
2 652.57 1.218
3 383.13 1.351
4 563.51 0.973
5 554.135 1
6 0 2.08

Angle Coeffs # harmonic

1 51.617 106.55
2 65.93 123.65
3 65.262 109.49
4 115.745 122.1
5 118.817 130.25
6 30 109.47

Dihedral Coeffs # fourier

1 1 2.3 2 180
2 2 2.3 2 180 1.9 1 0

Improper Coeffs # cvff

1 10.5 -1 2
2 10.5 -1 2

Atoms # full

3 0 7 1.575 0.26159594720215223 1.3169202263069808 -29.680628602668715 0 0 0
73 0 7 1.575 4.4975681144215205 5.488323276574449 -29.713751992148943 0 0 0
7 0 7 1.575 2.347407499297298 3.4246649181825126 -29.663235038543867 0 0 0
6 0 8 -1.05 2.2370205024536935 1.4179976453350513 -29.78631066681285 0 0 0
70 0 8 -1.05 2.5097731041142297 5.397018956526731 -29.664199685565006 0 0 0
4 0 8 -1.05 0.3774473856031876 3.288901489169097 -29.67339907921537 0 0 0
11 0 8 -1.05 4.298837843201306 3.5289478024040206 -29.738846569496893 0 0 0
10 0 7 1.575 3.5971868587680813 0.37392835130363733 -28.91565313420839 0 0 0
13 0 6 1.05 4.5939758994894495 3.4049752410655905 -27.739661963175863 0 0 0
68 0 6 1.05 2.3682556224554974 5.468717717130469 -27.651634351894444 0 0 0
1 0 8 -1.05 0.17144612143154914 1.325621827282869 -27.647710707643412 0 0 0
9 0 8 -1.05 2.4668073722532533 3.39752073077081 -27.62600610773057 0 0 0
64 0 8 -1.05 0.2899752725569085 5.4693538246924875 -27.468478469755745 0 0 0
14 0 8 -1.05 4.663565363851303 1.3225412406805177 -27.578877083179066 0 0 0
71 0 8 -1.05 4.458409305318797 5.464029453967198 -27.648782161767205 0 0 0
74 0 8 -1.05 4.506255996736011 7.444279894923833 -29.938185874697638 0 0 0
61 0 8 -1.05 0.5097511963716916 8.142191370638283 -29.899417786509854 0 0 0
67 0 8 -1.05 2.309540396429225 7.556856026267408 -27.47830163565549 0 0 0
63 0 6 1.05 0.37015548485667904 7.484258278068015 -28.002611557901545 0 0 0
76 0 8 -1.05 6.450263359157006 5.553897687081528 -29.779411476748248 0 0 0
20 0 8 -1.05 6.833374278644885 1.1711647012949722 -29.685728311218067 0 0 0
17 0 8 -1.05 6.746240793315125 3.3144726432417837 -27.585811790163284 0 0 0
80 0 7 1.575 7.696992816311885 4.419209721706593 -28.92284914654092 0 0 0
18 0 7 1.575 6.662494663965785 1.3229293477007504 -27.766404766392533 0 0 0
77 0 6 1.05 6.551375488828904 7.567406882032354 -30.05364281362271 0 0 0
79 0 8 -1.05 6.728917135954863 7.613872381056372 -27.666025213844488 0 0 0
23 0 7 1.575 8.803677454921822 1.2146858356924313 -29.79742442596636 0 0 0
27 0 6 1.05 10.916575606666115 3.3212968139295764 -30.249710506412804 0 0 0
26 0 8 -1.05 10.744353913829455 1.2896828112660164 -29.82296848723818 0 0 0
90 0 8 -1.05 10.985642349652595 5.376091177247431 -29.936012195437414 0 0 0
24 0 8 -1.05 8.917947397933085 3.186262461134918 -29.673488487474607 0 0 0
30 0 7 1.575 12.015205514211683 0.24876876521441132 -28.877362371955535 0 0 0
88 0 7 1.575 10.85585488529337 5.4933666962033065 -28.05973259625762 0 0 0
21 0 8 -1.05 8.70980914191159 1.133391256014284 -27.695746521114962 0 0 0
29 0 8 -1.05 10.954228676624819 3.667429150865633 -27.143442840274727 0 0 0
84 0 8 -1.05 8.863978355647259 5.550188895416386 -27.71320910894702 0 0 0
81 0 8 -1.05 8.573701086238202 7.897717708190868 -29.7781393602052 0 0 0
87 0 8 -1.05 10.754163564292007 7.535454409672028 -27.738656631568787 0 0 0
83 0 7 1.575 8.705364638142616 7.5357358059927 -27.864298568431444 0 0 0
99 0 8 -1.05 15.111708797515227 7.598447274805692 -27.63268380610796 0 0 0
97 0 7 1.575 15.151438718955273 7.553180526547422 -29.746741348825303 0 0 0
93 0 6 1.05 13.044165467169261 5.4733273922170556 -30.058049112563257 0 0 0
31 0 8 -1.05 12.825462008041125 3.500966690084916 -29.601842904251626 0 0 0
33 0 7 1.575 13.037020501601363 3.3850020329302146 -27.722421163067054 0 0 0
34 0 8 -1.05 12.908431332658846 1.4046103197681636 -27.55067594491518 0 0 0
91 0 8 -1.05 12.794716649684732 5.444626659592919 -27.570733588755623 0 0 0
38 0 6 1.05 15.08206210559354 1.2578277938164055 -27.627026735003405 0 0 0
100 0 7 1.575 16.117934539235623 4.363198822311845 -28.780352886425703 0 0 0
37 0 8 -1.05 15.02486827974935 3.4179533797116486 -27.45768159312135 0 0 0
40 0 8 -1.05 15.32583674615946 1.118736542859922 -29.621204177604042 0 0 0
94 0 8 -1.05 13.189479854240998 7.5577238219838625 -29.82546735241859 0 0 0
96 0 8 -1.05 15.096299877269086 5.627575290544045 -29.75471473849335 0 0 0
60 0 8 -1.05 23.77720356462055 1.0418446420005927 -29.75183593199229 0 0 0
116 0 8 -1.05 23.480693576916895 5.652843823814492 -29.7108515368228 0 0 0
120 0 7 1.575 24.607457612976038 4.449100472538513 -28.746032676863596 0 0 0
58 0 6 1.05 23.487009628367947 1.3681292071017883 -27.774623721192214 0 0 0
57 0 8 -1.05 23.557351182016646 3.418141899314689 -27.44668851724675 0 0 0
117 0 6 1.05 23.96198963532548 7.567945776658581 -29.915783557737065 0 0 0
119 0 8 -1.05 23.851045999978176 7.614515353095756 -27.623386361022472 0 0 0
103 0 7 1.575 17.129469024270566 7.475653860753949 -27.572299117477424 0 0 0
107 0 8 -1.05 19.093645351571674 7.463722513750693 -27.654726372362088 0 0 0
101 0 8 -1.05 17.236820962969464 7.639524332896028 -29.584986661818984 0 0 0
114 0 8 -1.05 21.28618270410533 7.543277117579424 -30.03258824520892 0 0 0
111 0 8 -1.05 21.445336254662248 5.530518571801754 -27.621798294696635 0 0 0
54 0 8 -1.05 21.450902793124737 1.2719597433041547 -27.422617513375478 0 0 0
104 0 8 -1.05 17.130403212573505 5.4814462123698275 -27.449692331272377 0 0 0
49 0 8 -1.05 19.421555992118527 3.445193831319004 -27.58769037110909 0 0 0
41 0 8 -1.05 17.209523778549038 1.2253394627088818 -27.54854291686138 0 0 0
108 0 6 1.05 19.36511346066597 5.454638689717291 -27.52643516632519 0 0 0
53 0 6 1.05 21.504001963139437 3.377481344868673 -27.72412270258262 0 0 0
50 0 7 1.575 20.390502186486188 0.1769034723640545 -28.722820741845453 0 0 0
51 0 8 -1.05 21.278170725849964 3.6686321357697547 -29.717841297285393 0 0 0
44 0 8 -1.05 17.401982638724057 3.269468767040729 -29.652563551796085 0 0 0
110 0 8 -1.05 19.472758213393202 5.548252811385345 -29.64625912639493 0 0 0
46 0 8 -1.05 19.262822563117876 1.4350140465270909 -29.609429110365582 0 0 0
47 0 7 1.575 19.35431199112973 3.430699687047127 -29.617377409022954 0 0 0
113 0 7 1.575 21.540611224309774 5.597561204197547 -29.630389988731473 0 0 0
43 0 7 1.575 17.2788475121768 1.269763757771334 -29.58484527224644 0 0 0
123 0 7 1.575 0.17274993511421274 10.040215595556562 -29.686918268421145 0 0 0
127 0 6 1.05 2.4012337230314227 12.07355514547636 -30.597957325198212 0 0 0
126 0 8 -1.05 2.5361936300093744 10.177241071495084 -29.56227477692423 0 0 0
124 0 8 -1.05 0.43139150528438647 11.86927873515744 -30.203010545710853 0 0 0
131 0 8 -1.05 4.604328280595291 11.98338883420534 -30.1904700554179 0 0 0
130 0 7 1.575 3.087403891560513 8.368263978883892 -29.067260549172143 0 0 0
133 0 7 1.575 4.033956060497242 11.08527582941413 -28.59156059706021 0 0 0
121 0 8 -1.05 0.2290087963328431 9.724361991176854 -27.71030449355691 0 0 0
129 0 8 -1.05 2.820489518993453 11.684045073479837 -27.20873583813592 0 0 0
134 0 8 -1.05 4.468571058842695 9.372288439917915 -27.797757273406482 0 0 0
140 0 8 -1.05 6.734434430421667 9.88378809975401 -29.81374979713237 0 0 0
137 0 8 -1.05 5.997419335195452 11.53023534533791 -27.930556952760785 0 0 0
138 0 7 1.575 6.456553713222678 9.555125153776 -27.817465995388133 0 0 0
193 0 6 1.05 4.5330220080202315 13.91588467219624 -29.699309095512316 0 0 0
190 0 8 -1.05 2.560351636729196 14.068207129951473 -30.174052594056597 0 0 0
188 0 6 1.05 0.0502679562283405 13.766864771835904 -29.631279210492494 0 0 0
184 0 8 -1.05 0.17892951547110184 14.028063654068028 -27.545325790866276 0 0 0
191 0 8 -1.05 4.401974581722086 13.997143804107449 -27.65178823904564 0 0 0
194 0 8 -1.05 4.532995628520798 15.987147237920919 -29.550218055397504 0 0 0
181 0 8 -1.05 0.4978672686607744 15.907539624705581 -29.583070196271912 0 0 0
187 0 8 -1.05 2.4196693310454402 16.114879240012225 -27.559957929337454 0 0 0
183 0 7 1.575 0.25029274237495613 15.957782146943805 -27.609339155344298 0 0 0
196 0 8 -1.05 6.604961189737834 13.9234684545513 -29.940604816078547 0 0 0
200 0 7 1.575 6.613285288135007 11.93724255842463 -29.83270679753091 0 0 0
197 0 7 1.575 6.619695601626319 15.870863524445971 -29.692229664552688 0 0 0
199 0 8 -1.05 6.592469806294489 15.970814679362373 -27.64632364552195 0 0 0
143 0 7 1.575 8.734305889294925 9.819176960116197 -29.808701522927368 0 0 0
147 0 6 1.05 10.881040703366894 11.874308037220887 -30.0963151055741 0 0 0
146 0 8 -1.05 10.634395823605079 10.003427815884605 -29.289218841679702 0 0 0
144 0 8 -1.05 8.622961208357323 11.779110412790168 -30.13429657599068 0 0 0
150 0 7 1.575 11.956998942510047 8.643207328463692 -28.888344150831834 0 0 0
141 0 8 -1.05 8.454761217057854 9.638528778190837 -27.77639815472135 0 0 0
149 0 8 -1.05 11.070034872821047 12.00459330387752 -27.227268128495915 0 0 0
210 0 8 -1.05 10.973682782262967 13.883694392633501 -29.672527118518843 0 0 0
208 0 7 1.575 10.896067266110386 13.970550151948382 -27.689039946003188 0 0 0
204 0 8 -1.05 8.951298525982935 13.888401919164977 -27.828954881286737 0 0 0
201 0 8 -1.05 8.456406092507258 16.043820220914817 -30.223164298312124 0 0 0
203 0 6 1.05 8.922283120370691 14.086991711865789 -29.877146791606176 0 0 0
207 0 8 -1.05 11.182930635776442 15.857210100608922 -27.444391788375654 0 0 0
158 0 7 1.575 15.05040312856855 9.69600933092823 -27.70110990547515 0 0 0
157 0 8 -1.05 15.040978481289269 11.681377956882175 -27.5975451381538 0 0 0
160 0 8 -1.05 15.30543663704321 9.491471560018123 -29.61410954623016 0 0 0
151 0 8 -1.05 12.868415197317002 12.106243401596675 -29.901612568780262 0 0 0
153 0 6 1.05 13.034456239401367 11.751838659487062 -27.946015383739287 0 0 0
154 0 8 -1.05 13.023644908518607 9.655244344890837 -27.519456148006675 0 0 0
219 0 8 -1.05 15.075018843441715 16.17176922485497 -27.51866693443756 0 0 0
217 0 7 1.575 15.090546690656877 16.121046267765436 -29.52597015642435 0 0 0
220 0 7 1.575 16.120866502033852 12.900806903621108 -28.7196306727591 0 0 0
216 0 8 -1.05 14.989296615166278 14.1531069182091 -29.663091249318427 0 0 0
213 0 7 1.575 12.998516069898823 14.047693706328843 -29.684628941688068 0 0 0
211 0 8 -1.05 12.970017724070336 13.838050817058555 -27.660304166063323 0 0 0
214 0 8 -1.05 13.073631894244116 16.040156162022676 -29.623297736238744 0 0 0
180 0 8 -1.05 23.637682865995114 9.571502638885397 -29.663279764341393 0 0 0
178 0 7 1.575 23.652308493044565 9.58579917419655 -27.55907538140837 0 0 0
177 0 8 -1.05 23.58896442657597 11.549154989833143 -27.546071163935217 0 0 0
174 0 8 -1.05 21.726713116856555 9.32361679157013 -27.779218620001153 0 0 0
169 0 8 -1.05 19.783957192829043 11.54323073212843 -27.38535103490747 0 0 0
161 0 8 -1.05 16.986542128345217 9.42176766001012 -27.400739905369516 0 0 0
173 0 7 1.575 21.48689118091667 9.517925555111653 -29.68337486941514 0 0 0
170 0 7 1.575 19.276830002653757 7.530385018689612 -29.61836001236592 0 0 0
171 0 8 -1.05 21.520819412120016 11.479510618313936 -29.859363899449338 0 0 0
164 0 8 -1.05 17.529402080354316 11.592274979254379 -28.870471492000238 0 0 0
166 0 8 -1.05 19.420104648807325 9.503953145955634 -29.87775167188595 0 0 0
167 0 6 1.05 19.499135895404724 11.663873893139943 -29.496907259921535 0 0 0
163 0 6 1.05 17.329844068804586 9.738966253477777 -29.681685828619088 0 0 0
223 0 6 1.05 17.160056423821704 16.115296478527338 -27.512936093323713 0 0 0
227 0 8 -1.05 19.397258316403068 16.24200474595849 -27.612451225983342 0 0 0
236 0 8 -1.05 23.381778389752007 13.966100415110732 -29.983924206909258 0 0 0
240 0 7 1.575 22.70382451201305 12.57778952845904 -28.843016303508225 0 0 0
221 0 8 -1.05 17.161753721667438 16.217555694914026 -29.57274221815393 0 0 0
234 0 8 -1.05 21.250031132413593 15.930432653976466 -29.815850552339995 0 0 0
237 0 6 1.05 23.30801814633794 15.982696768523855 -29.74209087481716 0 0 0
239 0 8 -1.05 23.711813999929575 16.184827559292195 -27.575814344792484 0 0 0
231 0 8 -1.05 21.79301371961193 13.760818901617531 -27.549569388844155 0 0 0
224 0 8 -1.05 17.0470726964504 14.069756538884603 -27.464681700411557 0 0 0
228 0 6 1.05 18.93288191354149 15.263451018556989 -29.450730110456814 0 0 0
230 0 8 -1.05 19.5600824027532 13.556244158648392 -30.162989761410266 0 0 0
233 0 6 1.05 21.382259504423153 14.10220993070573 -30.668618593155525 0 0 0
301 0 8 -1.05 0.17511859530219998 24.664318367543586 -29.69432521535313 0 0 0
314 0 8 -1.05 4.668136769229068 24.326024369513885 -29.438501299417865 0 0 0
303 0 6 1.05 0.18423459664502131 24.77513454636775 -27.583190081154076 0 0 0
307 0 8 -1.05 2.2621655151040945 24.681131653887682 -27.92913928315501 0 0 0
243 0 6 1.05 0.3278573555130574 18.13202682750829 -29.90280515731245 0 0 0
313 0 6 1.05 4.520095106977839 22.27023474736669 -29.42935023977769 0 0 0
247 0 6 1.05 2.465788162916676 20.27108430152183 -29.565953058645192 0 0 0
246 0 8 -1.05 2.482673375589168 17.924658229137762 -29.5337915164129 0 0 0
310 0 8 -1.05 2.6441680054494525 22.1861685007158 -30.105030081279263 0 0 0
244 0 8 -1.05 0.4604809459708284 20.123499072460007 -29.84297570666566 0 0 0
251 0 8 -1.05 4.554692060763641 20.180681924319142 -29.268761297660888 0 0 0
250 0 7 1.575 2.4650878568343884 15.91459791598752 -29.61099763867996 0 0 0
253 0 6 1.05 4.562546897627674 18.232382408625416 -29.625030091844387 0 0 0
308 0 7 1.575 1.5393757640199563 23.387514958863285 -29.21149601784041 0 0 0
241 0 8 -1.05 0.2830241953278085 17.916993545375917 -27.639536562037392 0 0 0
249 0 8 -1.05 2.273625924512774 20.09247505877904 -27.52367679588877 0 0 0
304 0 8 -1.05 0.32298618700769316 22.562640973077634 -27.84950649593419 0 0 0
254 0 8 -1.05 4.621778198965061 17.871357117423884 -27.46645126196589 0 0 0
311 0 8 -1.05 4.110906066115331 22.31652127646411 -27.265532271275024 0 0 0
317 0 6 1.05 6.626768247443988 24.577491116214098 -29.713900915728047 0 0 0
319 0 8 -1.05 6.833456524063931 24.78864874444545 -27.533725356104124 0 0 0
316 0 8 -1.05 6.438706329433385 22.202419729886437 -28.583561329075774 0 0 0
260 0 8 -1.05 6.585298368145467 17.844398901020188 -29.518231898635364 0 0 0
258 0 7 1.575 6.6493714379209985 18.0197787980014 -27.566896319808848 0 0 0
257 0 8 -1.05 7.718989867939507 19.649791536117068 -27.708136767432325 0 0 0
320 0 7 1.575 8.094270407355042 21.281456024633265 -28.881290642041087 0 0 0
321 0 8 -1.05 8.63897108592472 24.674317386960272 -29.64517701935884 0 0 0
323 0 7 1.575 8.846031454472852 24.525659062091773 -27.717651168661643 0 0 0
327 0 8 -1.05 10.915025653900322 24.528954374849963 -27.622796333045233 0 0 0
263 0 6 1.05 8.674238519703861 18.106347472126767 -29.997291764340122 0 0 0
267 0 6 1.05 10.909113089368546 20.570749615286452 -30.485363146248154 0 0 0
266 0 8 -1.05 10.140305601578618 18.18001613974942 -28.52207384917545 0 0 0
330 0 8 -1.05 11.046252711727714 22.429874798318476 -29.83834616710299 0 0 0
324 0 8 -1.05 9.07000963872523 22.496674090765882 -27.666575202581157 0 0 0
264 0 8 -1.05 8.972062992933985 20.155301553317518 -30.160886363825323 0 0 0
269 0 8 -1.05 11.01808020634802 20.58326489664925 -27.214710574751535 0 0 0
261 0 8 -1.05 8.754165064790572 16.14400692590742 -25.57030736817334 0 0 0
328 0 7 1.575 11.023661852844235 22.548897675124355 -27.951990069013625 0 0 0
270 0 7 1.575 11.864320304533331 17.22409920072924 -28.61739807308768 0 0 0
278 0 6 1.05 15.084536225950188 18.303209489224667 -27.60197281848484 0 0 0
340 0 7 1.575 16.226679781068807 21.429397584359364 -28.686306604118638 0 0 0
277 0 8 -1.05 15.02987278114737 20.393561130432424 -27.497900484520468 0 0 0
280 0 8 -1.05 15.31812587296117 18.04269269981435 -29.612694873744097 0 0 0
336 0 8 -1.05 15.127606642700016 22.604186364441325 -29.671037156091344 0 0 0
334 0 8 -1.05 13.243699835831283 24.500332606343665 -29.669685805274526 0 0 0
339 0 8 -1.05 15.200106544669048 24.614738872441706 -27.51962982791433 0 0 0
337 0 7 1.575 15.191599092602306 24.56855312676593 -29.58594627188491 0 0 0
333 0 6 1.05 13.11399023276545 22.457333830409006 -29.914397702261414 0 0 0
331 0 8 -1.05 12.924294956046836 22.36930175728888 -27.51932612205348 0 0 0
274 0 8 -1.05 12.97721429869363 18.34778239375564 -27.43922792793472 0 0 0
271 0 8 -1.05 12.692697642904736 20.356310469141494 -29.60675294841367 0 0 0
273 0 7 1.575 13.047368697244508 20.355202125436843 -27.720105498664765 0 0 0
357 0 7 1.575 23.56462754693104 24.54753199654987 -29.634494748262153 0 0 0
359 0 8 -1.05 23.61527314553581 24.669080873704704 -27.604319018214795 0 0 0
351 0 8 -1.05 21.4743557071081 22.345331647968933 -27.555836104201784 0 0 0
294 0 8 -1.05 21.757876998156192 18.21853509355743 -27.446541512787952 0 0 0
344 0 8 -1.05 17.276951501616338 22.429564647642447 -27.354235335454497 0 0 0
289 0 8 -1.05 19.47442001674513 20.294825068049153 -27.518131078328235 0 0 0
281 0 8 -1.05 17.182028259546716 18.17659480919994 -27.488000646158618 0 0 0
348 0 6 1.05 19.333420551644952 22.481210511084072 -27.650113514271883 0 0 0
293 0 6 1.05 21.53490594548237 20.28703431889166 -27.615076939330216 0 0 0
290 0 7 1.575 20.60323494650485 17.364667222922137 -28.738075003944584 0 0 0
291 0 8 -1.05 21.355283285514478 20.413555416654333 -29.620098333030793 0 0 0
284 0 8 -1.05 17.407097132730744 20.194089667920156 -29.533868619442046 0 0 0
350 0 8 -1.05 19.555926698693007 22.250996299344006 -29.633540171443016 0 0 0
286 0 8 -1.05 19.231941372398538 18.322337550094314 -29.650398798635603 0 0 0
287 0 7 1.575 19.371873309794523 20.316370863688142 -29.573938549917436 0 0 0
353 0 7 1.575 21.50044615041977 22.40510481240226 -29.592896367025904 0 0 0
283 0 7 1.575 17.249940943506502 18.239941333459193 -29.513716319558856 0 0 0
300 0 8 -1.05 23.78942944744876 17.902914463796893 -29.69569895795897 0 0 0
356 0 8 -1.05 23.499439896009804 22.55782768247787 -29.685703930644348 0 0 0
360 0 7 1.575 24.65987953160156 21.220783362704786 -28.93286316041832 0 0 0
298 0 7 1.575 23.73725625009124 18.216853512686537 -27.801607452875754 0 0 0
297 0 8 -1.05 23.69049893994079 20.203388070544783 -27.569560055039133 0 0 0
347 0 8 -1.05 19.418680190833822 24.55923864719159 -27.364904562391374 0 0 0
343 0 6 1.05 17.3042938216368 24.53388022649312 -27.62818693882211 0 0 0
354 0 8 -1.05 21.605497861188287 24.395128650886612 -29.57251127292504 0 0 0
341 0 8 -1.05 17.16071365825747 24.7544558826103 -29.619631023308077 0 0 0
75 0 7 1.575 5.5297597375971455 6.6032139356074495 -26.586718222291776 0 0 0
5 0 7 1.575 1.2989724002071599 2.377526620011252 -26.538198715789182 0 0 0
66 0 8 -1.05 2.2732320341775805 5.6301447603637 -25.357071963722127 0 0 0
15 0 8 -1.05 4.574825355516713 3.249102563870075 -25.430273236013566 0 0 0
405 0 7 1.575 1.3684531060411216 6.584030056825956 -22.33333720329006 0 0 0
371 0 7 1.575 5.4693002115944305 2.307989656887814 -22.415736582924076 0 0 0
408 0 7 1.575 3.495610939402365 4.475379522226253 -24.457080209836114 0 0 0
361 0 6 1.05 0.1513654967819085 1.3741993597924276 -21.40360530258175 0 0 0
409 0 6 1.05 4.525923406950897 5.524873538075027 -21.24158924063667 0 0 0
362 0 6 1.05 0.26489344952959415 3.414980327358231 -23.38761375452093 0 0 0
367 0 7 1.575 2.3756866977339754 1.189676847604978 -23.499316162386584 0 0 0
12 0 7 1.575 4.540300671220123 1.256760764259101 -25.62417375606567 0 0 0
62 0 7 1.575 0.22511939006044354 5.565378656486433 -25.50385516045591 0 0 0
368 0 7 1.575 2.4240876128980466 3.3192683260243387 -21.315233126184474 0 0 0
365 0 8 -1.05 2.2843780978088004 1.3246297745971676 -21.370210543923317 0 0 0
406 0 8 -1.05 2.3711935978873164 5.384915795073889 -21.134693070810364 0 0 0
411 0 8 -1.05 4.625396897217935 5.557856649517465 -23.267812685455034 0 0 0
366 0 8 -1.05 2.4311852052771616 3.2923564326854593 -23.27759350663563 0 0 0
369 0 8 -1.05 4.374250629063093 1.162866803068288 -23.494496614038727 0 0 0
364 0 8 -1.05 0.4450252259156602 3.344145877039758 -21.048401803239148 0 0 0
370 0 8 -1.05 4.404053712140414 3.372428510880721 -21.13981734446746 0 0 0
8 0 8 -1.05 2.4601163981542125 1.2070492288746257 -25.45225949398818 0 0 0
403 0 8 -1.05 0.20575321095246135 5.469680716427576 -23.32770556505056 0 0 0
2 0 8 -1.05 0.18148840835437652 3.5156504861954607 -25.405298861406735 0 0 0
363 0 8 -1.05 0.3968577947747167 1.2939244982154972 -23.396639742939506 0 0 0
618 0 7 1.575 2.3167578849205808 24.82376290708004 -21.17825873018527 0 -1 0
65 0 8 -1.05 0.4162491234603781 7.546813697767127 -25.189135045214385 0 0 0
412 0 8 -1.05 4.74225768348924 7.70207919216764 -20.933383032750957 0 0 0
69 0 7 1.575 2.391860635146939 7.631942173659882 -25.543312471242523 0 0 0
410 0 6 1.05 4.577702029174952 7.671664767614786 -23.418773255743783 0 0 0
72 0 8 -1.05 4.395297371165803 7.669694060604703 -25.410283115639746 0 0 0
404 0 8 -1.05 0.24123116900108044 7.702114791610888 -21.136124266006764 0 0 0
407 0 8 -1.05 2.5213137721079235 7.7852907719610815 -23.25793498980916 0 0 0
16 0 8 -1.05 6.5698481609970365 1.3456649910526741 -25.4995942345026 0 0 0
413 0 8 -1.05 6.6068030980168375 5.6965158309788 -21.264844902300737 0 0 0
374 0 7 1.575 7.721794773398182 0.10161376671228496 -24.584469945668097 0 0 0
415 0 7 1.575 6.677810027103715 5.564616194059511 -23.36329230270341 0 0 0
19 0 6 1.05 6.635606390514329 3.45748579993174 -25.571845210907387 0 0 0
373 0 8 -1.05 6.696793367099389 3.5316835422976687 -23.25273140104837 0 0 0
78 0 8 -1.05 6.638881408241599 5.579164555873454 -25.326068129666446 0 0 0
372 0 8 -1.05 6.593969087609601 1.2110326798558313 -21.259924649570987 0 0 0
668 0 7 1.575 7.682942275299688 4.501982380208339 -20.235679936494993 0 0 0
414 0 8 -1.05 6.658770503404715 7.624825715423795 -23.240723360902237 0 0 0
416 0 7 1.575 6.724586356503831 7.6899326285528335 -21.28296549361573 0 0 0
25 0 7 1.575 9.686352152920243 2.3321417040959935 -26.655038846106503 0 0 0
86 0 8 -1.05 10.73778121992226 5.594130216563097 -25.09622144921743 0 0 0
419 0 7 1.575 10.6817881094318 5.683092977554891 -23.137446194636354 0 0 0
422 0 7 1.575 11.344911554911585 3.747776246736446 -25.170325714435645 0 0 0
375 0 6 1.05 8.730705026588804 1.202996085355656 -21.425523553529473 0 0 0
376 0 7 1.575 8.670384612645094 3.3566431533398613 -23.350850648978152 0 0 0
381 0 7 1.575 10.8430743673815 1.1892761242239507 -23.336101180305825 0 0 0
82 0 6 1.05 8.694546038290206 5.552988208482969 -25.65770390555773 0 0 0
382 0 6 1.05 10.878710293509636 3.3652883208903175 -21.204024536009072 0 0 0
379 0 8 -1.05 10.788920611818291 1.336302478881206 -21.275248017548787 0 0 0
420 0 8 -1.05 10.988437199722558 5.526556095663409 -21.055773587934077 0 0 0
380 0 8 -1.05 10.702015238051475 3.5186694972442067 -23.253005385622355 0 0 0
378 0 8 -1.05 8.74954730526375 3.2674359357380913 -21.232591651598206 0 0 0
28 0 8 -1.05 10.927066172645032 1.6774290818400135 -25.250843925083174 0 0 0
417 0 8 -1.05 8.688086093086675 5.368770902343868 -23.237089091315447 0 0 0
22 0 8 -1.05 8.77572501055772 3.463586459782265 -25.327276379320384 0 0 0
377 0 8 -1.05 8.814041515813038 1.3353203118317973 -23.418893648202232 0 0 0
632 0 7 1.575 11.758540456569868 0.1406187479250331 -20.145797038891494 0 0 0
85 0 8 -1.05 8.825202157257648 7.648577830704038 -25.69781883443916 0 0 0
89 0 6 1.05 10.906342565023916 7.5437014496033665 -25.70781830940192 0 0 0
418 0 8 -1.05 8.644626044501154 7.837217583970125 -20.926758550236823 0 0 0
421 0 8 -1.05 10.908107153552969 7.661470887729679 -23.003482794069434 0 0 0
430 0 7 1.575 15.023936022778507 7.623924093012269 -21.151171327966956 0 0 0
428 0 8 -1.05 15.102132201645972 7.659425905739237 -23.128605261466507 0 0 0
95 0 7 1.575 14.014532040121201 6.464798418709979 -26.53847190194398 0 0 0
35 0 8 -1.05 13.165951315390172 3.3543963690272545 -25.511619664332475 0 0 0
385 0 7 1.575 14.040258611262301 2.3419928966419636 -22.29717861761936 0 0 0
423 0 7 1.575 13.026518393956195 5.446591800776613 -21.123270514586956 0 0 0
32 0 6 1.05 13.04677329773277 1.2379715165602685 -25.550242080231776 0 0 0
425 0 8 -1.05 12.825202346351654 5.592032814830374 -23.046597645823436 0 0 0
383 0 8 -1.05 12.850810992699198 1.1811179225719957 -23.23056986768803 0 0 0
384 0 8 -1.05 13.012078869531276 3.4633396752396943 -21.062157732840454 0 0 0
682 0 7 1.575 16.126930951586658 4.428333779482946 -20.031092346116875 0 0 0
386 0 8 -1.05 15.214901163082091 1.3290953644450454 -21.08219738599313 0 0 0
98 0 8 -1.05 15.182595592862882 5.424318479293122 -25.381434635706295 0 0 0
387 0 8 -1.05 15.175248974241141 3.45210038171104 -23.33557654606379 0 0 0
39 0 7 1.575 15.134635724802003 3.3828531406978075 -25.46052833766697 0 0 0
429 0 6 1.05 15.021454838432875 5.504264202176619 -23.36000642350962 0 0 0
388 0 7 1.575 16.201478857401383 0.2098748006403604 -24.39768534059584 0 0 0
427 0 8 -1.05 14.999911467605168 5.606828118956281 -21.03935677313204 0 0 0
36 0 8 -1.05 15.093029840452969 1.4067775418410837 -25.361252044058627 0 0 0
426 0 8 -1.05 13.010992419569323 7.471549976541521 -21.08286385192674 0 0 0
424 0 6 1.05 13.037569767588968 7.587212265721135 -23.4046255518695 0 0 0
92 0 8 -1.05 12.958422766175188 7.680028155988661 -25.423315915829686 0 0 0
402 0 7 1.575 24.667039854008767 0.17528629765225834 -24.485993065276098 0 0 0
443 0 6 1.05 23.553853467863895 5.579617334144388 -23.347784232443733 0 0 0
59 0 7 1.575 23.579346912627376 3.4469083065717907 -25.486752425153597 0 0 0
401 0 8 -1.05 23.636531541613756 3.497287396745127 -23.29689278633274 0 0 0
118 0 8 -1.05 23.64083729223058 5.5028806284028375 -25.396255929826747 0 0 0
400 0 8 -1.05 23.552081156994678 1.274410082577973 -21.08113185632782 0 0 0
56 0 8 -1.05 23.490497340207092 1.4141285373224193 -25.3578748150564 0 0 0
441 0 8 -1.05 23.55262862740543 5.701785444616124 -21.04118418444719 0 0 0
696 0 7 1.575 24.64505815620587 4.455150602351702 -20.13311846836164 0 0 0
444 0 7 1.575 23.611884629122244 7.68615021494687 -21.18261071425327 0 0 0
442 0 8 -1.05 23.48847856263324 7.7135304173920085 -23.12118094980502 0 0 0
435 0 8 -1.05 19.456652643059563 7.81395047789709 -23.065019917501896 0 0 0
432 0 8 -1.05 17.125280552122778 7.716434412841488 -21.069538841749164 0 0 0
112 0 8 -1.05 21.380084557063906 7.599202543915915 -25.28726861342571 0 0 0
438 0 7 1.575 21.48008399379996 7.797483048905974 -23.380049915080612 0 0 0
109 0 6 1.05 19.37047299095898 7.6702265153051075 -25.691829594462945 0 0 0
440 0 8 -1.05 21.650828649914157 7.646718695855837 -20.963023479881656 0 0 0
105 0 8 -1.05 17.205138580292758 7.423008051921791 -25.47220703126693 0 0 0
646 0 7 1.575 20.380835879573635 0.24727006859034897 -20.07290516971166 0 0 0
391 0 8 -1.05 17.25764669003255 1.2842844870455907 -23.123680265989368 0 0 0
42 0 8 -1.05 17.172890682504377 3.439411645655184 -25.3785003470938 0 0 0
431 0 8 -1.05 17.155570295790415 5.468267446044776 -23.327568879626533 0 0 0
48 0 8 -1.05 19.43493165189653 1.2113739817922062 -25.344918705703787 0 0 0
398 0 8 -1.05 21.379955575218517 3.4340842843703374 -20.96660205454804 0 0 0
392 0 8 -1.05 17.34268561220464 3.30441202411483 -20.98469141688863 0 0 0
397 0 8 -1.05 21.415714700835185 1.2452362745679195 -23.318051877728074 0 0 0
394 0 8 -1.05 19.381761229107767 3.4425008783892914 -23.11455949650272 0 0 0
439 0 8 -1.05 21.46003107901452 5.713084879312085 -23.17684381643708 0 0 0
434 0 8 -1.05 19.315568418020124 5.4529570371889795 -21.0236768634796 0 0 0
393 0 8 -1.05 19.236123885425464 1.4372821294377076 -21.02791119851305 0 0 0
396 0 7 1.575 19.34137567794983 3.450518455017146 -21.169326620012967 0 0 0
102 0 7 1.575 17.216633821953554 5.443567659071307 -25.44207478111362 0 0 0
52 0 7 1.575 21.467204992354993 1.2989685659176908 -25.450171066946528 0 0 0
395 0 6 1.05 19.350572001007226 1.3083096299324564 -23.32055223577007 0 0 0
390 0 6 1.05 17.247495988698113 3.3867441441276522 -23.34290076392386 0 0 0
437 0 6 1.05 21.450413483716975 5.584934542513156 -21.17503585207951 0 0 0
389 0 7 1.575 17.211238439085978 1.2935350679012971 -21.177907494699088 0 0 0
436 0 7 1.575 20.446606573271424 4.5412568538817535 -24.373889415649437 0 0 0
399 0 7 1.575 22.46964365377471 2.4097697518135996 -22.2695341751159 0 0 0
433 0 7 1.575 18.262164029096464 6.56870587948085 -22.247790216844056 0 0 0
55 0 8 -1.05 21.580664923628117 3.316479160312454 -25.312707669421094 0 0 0
106 0 8 -1.05 19.191769937757115 5.541023317480258 -25.390209294928376 0 0 0
45 0 7 1.575 18.33104605287464 2.3260954414118205 -26.503014842001868 0 0 0
115 0 7 1.575 22.52668586363762 6.715389866494835 -26.580447698452527 0 0 0
125 0 7 1.575 1.2843123290801808 10.764889392176194 -26.53310559292713 0 0 0
135 0 8 -1.05 4.715184254768134 11.81671679210916 -25.163688206490356 0 0 0
455 0 7 1.575 4.613204636787482 11.87473634083837 -23.259596578347203 0 0 0
445 0 7 1.575 0.4214028130416652 9.68228642098646 -21.16118981320137 0 0 0
446 0 6 1.05 0.49871667912560713 11.884922382111611 -23.380268304897363 0 0 0
451 0 7 1.575 2.4313050983783375 9.749542930909595 -23.371500996017478 0 0 0
132 0 6 1.05 4.455959714308506 9.784420367811258 -25.775490400375325 0 0 0
452 0 6 1.05 2.3880095462356348 11.909894397475947 -21.05331157785266 0 0 0
449 0 8 -1.05 2.399883388433105 9.836985462093601 -21.04949238733156 0 0 0
450 0 8 -1.05 2.559171519450785 11.694707688154 -23.043889101395802 0 0 0
453 0 8 -1.05 4.408632144151084 9.79839099926741 -22.99246806612408 0 0 0
448 0 8 -1.05 0.17919201761672668 11.67448544103995 -20.979303834002717 0 0 0
454 0 8 -1.05 4.6406179064968995 11.792427127938003 -21.060407333942564 0 0 0
128 0 8 -1.05 2.383124976471011 9.645506595079409 -25.30724605552248 0 0 0
122 0 8 -1.05 0.24200339071555935 11.874651537700167 -25.346341754021477 0 0 0