LAMMPS data file via write_data, version 21 Nov 2023, timestep = 10896481, units = real

2232 atoms
10 atom types
90 bonds
6 bond types
162 angles
6 angle types
0 dihedrals
2 dihedral types
18 impropers
2 improper types

0 25.44 xlo xhi
0 25.44 ylo yhi
-40.390587 40.907413000000005 zlo zhi

Masses

1 12.011
2 1.008
3 15.9994
4 15.9994
5 1.008
6 55.845
7 55.845
8 15.9994
9 15.9994
10 1.008

Pair Coeffs # lj/cut/coul/long

1 0.0988 3.31521
2 0.0161 2.4473
3 0.1463 3.04812
4 0.093 3.24287
5 0.0047 0.537925
6 9.0298e-07 4.9062
7 9.0298e-07 4.9062
8 0.1554 3.16554
9 0.1554 3.16554
10 0 0

Bond Coeffs # harmonic

1 361.8 1.105
2 652.57 1.218
3 383.13 1.351
4 563.51 0.973
5 554.135 1
6 0 2.08

Angle Coeffs # harmonic

1 51.617 106.55
2 65.93 123.65
3 65.262 109.49
4 115.745 122.1
5 118.817 130.25
6 30 109.47

Dihedral Coeffs # fourier

1 1 2.3 2 180
2 2 2.3 2 180 1.9 1 0

Improper Coeffs # cvff

1 10.5 -1 2
2 10.5 -1 2

Atoms # full

11 0 1 0.731 3.432943078777205 7.683941574269218 -19.253703678274306 0 0 0
10 0 2 -0.123 3.433892714114837 7.687252145994451 -20.352271097612384 0 0 0
13 0 3 -0.804 4.186370831500918 8.43366129132896 -18.647971774201658 0 0 0
7 0 3 -0.804 2.682006570872867 6.927672376774127 -18.65228045668656 0 0 0
259 0 1 0.731 10.02872683707157 5.800333338113789 -19.265037986974857 0 0 0
258 0 2 -0.123 10.044562192860992 5.854166729922782 -20.364567343251903 0 0 0
261 0 3 -0.804 10.798310593867717 6.549352061969588 -18.65095829306163 0 0 0
255 0 3 -0.804 9.257379219999871 5.002455224278922 -18.73867782598442 0 0 0
16 0 9 -0.975 4.410592082426244 6.699325917105432 -16.648081214873397 0 0 0
18 0 8 -1.05 6.655251999999998 4.461582 -16.738421999999996 0 0 0
3 2 7 1.575 4.498416999999998 0.258417 -16.701586999999996 0 0 0
8 2 7 1.575 0.258417 4.498416999999998 -16.701586999999996 0 0 0
6 2 7 1.575 6.618416999999998 2.3784170000000002 -16.701586999999996 0 0 0
14 2 7 1.575 2.3784170000000002 6.618416999999998 -16.701586999999996 0 0 0
5 0 8 -1.05 6.581580999999999 0.295252 -16.664751999999996 0 0 0
9 0 8 -1.05 0.295252 6.581580999999999 -16.664751999999996 0 0 0
4 0 8 -1.05 4.535251999999998 2.3415820000000003 -16.664751999999996 0 0 0
12 0 8 -1.05 2.3415820000000003 4.535251999999998 -16.664751999999996 0 0 0
17 0 10 0.425 4.652966457687763 6.47222075427811 -17.640253523818235 0 0 0
15 0 10 0.425 2.2325270186317185 8.892309420510989 -17.63306281840248 0 0 0
1490 0 9 -0.975 2.463925013890902 0.1748477410144652 -16.63782230858843 0 1 0
497 0 8 -1.05 0.2215820000000015 2.415252 -16.738421999999996 1 0 0
1 0 8 -1.05 8.701582 2.415252 -16.738421999999996 0 0 0
256 2 7 1.575 8.738417 4.498416999999998 -16.701586999999996 0 0 0
262 2 7 1.575 10.858417000000001 6.618416999999998 -16.701586999999996 0 0 0
257 0 8 -1.05 8.775252 6.581580999999999 -16.664751999999996 0 0 0
260 0 8 -1.05 10.821582000000001 4.535251999999998 -16.664751999999996 0 0 0
263 0 10 0.425 10.646306798713898 8.864883095013655 -17.761007450341424 0 0 0
1738 0 9 -0.975 10.971218758541568 0.1849390108980613 -16.793845494254487 0 1 0
2 0 9 -0.975 2.4656097774179617 8.649212184111652 -16.64257474751318 0 0 0
747 2 7 1.575 4.498416999999998 8.738417 -16.701586999999996 0 0 0
750 2 7 1.575 6.618416999999998 10.858417000000001 -16.701586999999996 0 0 0
749 0 8 -1.05 6.581580999999999 8.775252 -16.664751999999996 0 0 0
748 0 8 -1.05 4.535251999999998 10.821582000000001 -16.664751999999996 0 0 0
1241 0 8 -1.05 0.2215820000000015 10.895252000000001 -16.738421999999996 1 0 0
745 0 8 -1.05 8.701582 10.895252000000001 -16.738421999999996 0 0 0
250 0 9 -0.975 10.97270934744964 8.668988844376521 -16.789245452144954 0 0 0
1503 0 10 0.425 2.2485137033642206 0.4043032331787068 -17.635522034647963 0 1 0
1751 0 10 0.425 10.640460475597108 0.3965389761337519 -17.76157234873841 0 1 0
1040 2 7 1.575 8.738417 10.858417000000001 -10.341587000000004 0 0 0
1043 2 7 1.575 10.858417000000001 8.738417 -10.341587000000004 0 0 0
1042 0 8 -1.05 10.821582000000001 10.821582000000001 -10.378423000000005 0 0 0
1041 0 8 -1.05 8.775252 8.775252 -10.378423000000005 0 0 0
22 1 7 1.575 1.3184170000000002 1.3184170000000002 -15.641586999999998 0 0 0
43 2 7 1.575 5.5584169999999995 5.5584169999999995 -15.641586999999998 0 0 0
37 2 7 1.575 2.3784170000000002 4.498416999999998 -14.581587000000003 0 0 0
34 2 7 1.575 0.258417 6.618416999999998 -14.581587000000003 0 0 0
27 2 7 1.575 4.498416999999998 2.3784170000000002 -14.581587000000003 0 0 0
30 2 7 1.575 6.618416999999998 0.258417 -14.581587000000003 0 0 0
35 0 8 -1.05 0.295252 4.535251999999998 -14.618421999999995 0 0 0
46 0 8 -1.05 6.655251999999998 6.655251999999998 -14.544752000000003 0 0 0
40 0 8 -1.05 4.461582 4.461582 -14.544752000000003 0 0 0
29 0 8 -1.05 6.581580999999999 2.3415820000000003 -14.618421999999995 0 0 0
36 0 8 -1.05 2.3415820000000003 6.581580999999999 -14.618421999999995 0 0 0
28 0 8 -1.05 4.535251999999998 0.295252 -14.618421999999995 0 0 0
25 0 8 -1.05 2.415252 2.415252 -14.544752000000003 0 0 0
57 1 7 1.575 5.5584169999999995 1.3184170000000002 -11.401586999999996 0 0 0
39 1 7 1.575 3.4384170000000003 7.678417 -13.521587000000004 0 0 0
64 1 7 1.575 1.3184170000000002 5.5584169999999995 -11.401586999999996 0 0 0
32 1 7 1.575 7.678417 3.4384170000000003 -13.521587000000004 0 0 0
24 2 7 1.575 2.3784170000000002 2.3784170000000002 -12.461586999999994 0 0 0
45 2 6 1.05 6.618416999999998 6.618416999999998 -12.461586999999994 0 0 0
20 2 6 1.05 0.258417 0.258417 -12.461586999999994 0 0 0
41 2 6 1.05 4.498416999999998 4.498416999999998 -12.461586999999994 0 0 0
26 0 8 -1.05 4.461582 2.415252 -12.498421999999998 0 0 0
42 0 8 -1.05 4.535251999999998 6.581580999999999 -12.424751999999998 0 0 0
23 0 8 -1.05 2.3415820000000003 0.295252 -12.424751999999998 0 0 0
38 0 8 -1.05 2.415252 4.461582 -12.498421999999998 0 0 0
44 0 8 -1.05 6.581580999999999 4.535251999999998 -12.424751999999998 0 0 0
21 0 8 -1.05 0.295252 2.3415820000000003 -12.424751999999998 0 0 0
1519 0 8 -1.05 6.655251999999998 0.2215820000000015 -12.498421999999998 0 1 0
529 0 8 -1.05 0.2215820000000015 6.655251999999998 -12.498421999999998 1 0 0
2003 0 8 -1.05 0.2215820000000015 0.2215820000000015 -14.544752000000003 1 1 0
33 0 8 -1.05 8.701582 6.655251999999998 -12.498421999999998 0 0 0
1507 0 8 -1.05 8.701582 0.2215820000000015 -14.544752000000003 0 1 0
270 1 7 1.575 9.798417 1.3184170000000002 -15.641586999999998 0 0 0
285 2 7 1.575 10.858417000000001 4.498416999999998 -14.581587000000003 0 0 0
282 2 7 1.575 8.738417 6.618416999999998 -14.581587000000003 0 0 0
283 0 8 -1.05 8.775252 4.535251999999998 -14.618421999999995 0 0 0
284 0 8 -1.05 10.821582000000001 6.581580999999999 -14.618421999999995 0 0 0
273 0 8 -1.05 10.895252000000001 2.415252 -14.544752000000003 0 0 0
287 1 7 1.575 11.918417000000002 7.678417 -13.521587000000004 0 0 0
312 1 7 1.575 9.798417 5.5584169999999995 -11.401586999999996 0 0 0
272 2 6 1.05 10.858417000000001 2.3784170000000002 -12.461586999999994 0 0 0
268 2 6 1.05 8.738417 0.258417 -12.461586999999994 0 0 0
271 0 8 -1.05 10.821582000000001 0.295252 -12.424751999999998 0 0 0
286 0 8 -1.05 10.895252000000001 4.461582 -12.498421999999998 0 0 0
269 0 8 -1.05 8.775252 2.3415820000000003 -12.424751999999998 0 0 0
31 0 8 -1.05 6.655251999999998 8.701582 -12.498421999999998 0 0 0
766 1 7 1.575 1.3184170000000002 9.798417 -15.641586999999998 0 0 0
771 2 7 1.575 4.498416999999998 10.858417000000001 -14.581587000000003 0 0 0
774 2 7 1.575 6.618416999999998 8.738417 -14.581587000000003 0 0 0
773 0 8 -1.05 6.581580999999999 10.821582000000001 -14.618421999999995 0 0 0
772 0 8 -1.05 4.535251999999998 8.775252 -14.618421999999995 0 0 0
769 0 8 -1.05 2.415252 10.895252000000001 -14.544752000000003 0 0 0
801 1 7 1.575 5.5584169999999995 9.798417 -11.401586999999996 0 0 0
776 1 7 1.575 7.678417 11.918417000000002 -13.521587000000004 0 0 0
768 2 6 1.05 2.3784170000000002 10.858417000000001 -12.461586999999994 0 0 0
764 2 6 1.05 0.258417 8.738417 -12.461586999999994 0 0 0
770 0 8 -1.05 4.461582 10.895252000000001 -12.498421999999998 0 0 0
767 0 8 -1.05 2.3415820000000003 8.775252 -12.424751999999998 0 0 0
765 0 8 -1.05 0.295252 10.821582000000001 -12.424751999999998 0 0 0
515 0 8 -1.05 0.2215820000000015 8.701582 -14.544752000000003 1 0 0
19 0 8 -1.05 8.701582 8.701582 -14.544752000000003 0 0 0
1014 1 7 1.575 9.798417 9.798417 -15.641586999999998 0 0 0
1017 0 8 -1.05 10.895252000000001 10.895252000000001 -14.544752000000003 0 0 0
1016 2 6 1.05 10.858417000000001 10.858417000000001 -12.461586999999994 0 0 0
1012 2 6 1.05 8.738417 8.738417 -12.461586999999994 0 0 0
1015 0 8 -1.05 10.821582000000001 8.775252 -12.424751999999998 0 0 0
1013 0 8 -1.05 8.775252 10.821582000000001 -12.424751999999998 0 0 0
74 1 7 1.575 7.678417 7.678417 -9.281587000000002 0 0 0
53 1 7 1.575 3.4384170000000003 3.4384170000000003 -9.281587000000002 0 0 0
72 2 7 1.575 6.618416999999998 4.498416999999998 -10.341587000000004 0 0 0
48 2 7 1.575 0.258417 2.3784170000000002 -10.341587000000004 0 0 0
69 2 7 1.575 4.498416999999998 6.618416999999998 -10.341587000000004 0 0 0
51 2 6 1.05 2.3784170000000002 0.258417 -10.341587000000004 0 0 0
50 0 8 -1.05 2.3415820000000003 2.3415820000000003 -10.378423000000005 0 0 0
70 0 8 -1.05 4.535251999999998 4.535251999999998 -10.378423000000005 0 0 0
67 0 8 -1.05 2.415252 6.655251999999998 -10.304752000000004 0 0 0
49 0 8 -1.05 0.295252 0.295252 -10.378423000000005 0 0 0
68 0 8 -1.05 4.461582 6.655251999999998 -8.258422000000003 0 0 0
60 0 8 -1.05 6.655251999999998 2.415252 -10.304752000000004 0 0 0
73 0 8 -1.05 6.655251999999998 4.461582 -8.258422000000003 0 0 0
71 0 8 -1.05 6.581580999999999 6.581580999999999 -10.378423000000005 0 0 0
55 2 7 1.575 4.498416999999998 0.258417 -8.221587 0 0 0
62 2 6 1.05 0.258417 4.498416999999998 -8.221587 0 0 0
59 2 6 1.05 6.618416999999998 2.3784170000000002 -8.221587 0 0 0
66 2 6 1.05 2.3784170000000002 6.618416999999998 -8.221587 0 0 0
58 0 8 -1.05 6.581580999999999 0.295252 -8.184751999999996 0 0 0
63 0 8 -1.05 0.295252 6.581580999999999 -8.184751999999996 0 0 0
56 0 8 -1.05 4.535251999999998 2.3415820000000003 -8.184751999999996 0 0 0
65 0 8 -1.05 2.3415820000000003 4.535251999999998 -8.184751999999996 0 0 0
1540 0 8 -1.05 2.415252 0.2215820000000015 -8.258422000000003 0 1 0
1542 0 8 -1.05 4.461582 0.2215820000000015 -10.304752000000004 0 1 0
557 0 8 -1.05 0.2215820000000015 4.461582 -10.304752000000004 1 0 0
543 0 8 -1.05 0.2215820000000015 2.415252 -8.258422000000003 1 0 0
61 0 8 -1.05 8.701582 4.461582 -10.304752000000004 0 0 0
47 0 8 -1.05 8.701582 2.415252 -8.258422000000003 0 0 0
301 1 7 1.575 11.918417000000002 3.4384170000000003 -9.281587000000002 0 0 0
296 2 7 1.575 8.738417 2.3784170000000002 -10.341587000000004 0 0 0
299 2 6 1.05 10.858417000000001 0.258417 -10.341587000000004 0 0 0
298 0 8 -1.05 10.821582000000001 2.3415820000000003 -10.378423000000005 0 0 0
315 0 8 -1.05 10.895252000000001 6.655251999999998 -10.304752000000004 0 0 0
297 0 8 -1.05 8.775252 0.295252 -10.378423000000005 0 0 0
310 2 6 1.05 8.738417 4.498416999999998 -8.221587 0 0 0
314 2 6 1.05 10.858417000000001 6.618416999999998 -8.221587 0 0 0
311 0 8 -1.05 8.775252 6.581580999999999 -8.184751999999996 0 0 0
313 0 8 -1.05 10.821582000000001 4.535251999999998 -8.184751999999996 0 0 0
1788 0 8 -1.05 10.895252000000001 0.2215820000000015 -8.258422000000003 0 1 0
52 0 8 -1.05 2.415252 8.701582 -8.258422000000003 0 0 0
54 0 8 -1.05 4.461582 8.701582 -10.304752000000004 0 0 0
797 1 7 1.575 3.4384170000000003 11.918417000000002 -9.281587000000002 0 0 0
792 2 7 1.575 0.258417 10.858417000000001 -10.341587000000004 0 0 0
795 2 7 1.575 2.3784170000000002 8.738417 -10.341587000000004 0 0 0
794 0 8 -1.05 2.3415820000000003 10.821582000000001 -10.378423000000005 0 0 0
793 0 8 -1.05 0.295252 8.775252 -10.378423000000005 0 0 0
804 0 8 -1.05 6.655251999999998 10.895252000000001 -10.304752000000004 0 0 0
799 2 6 1.05 4.498416999999998 8.738417 -8.221587 0 0 0
803 2 7 1.575 6.618416999999998 10.858417000000001 -8.221587 0 0 0
802 0 8 -1.05 6.581580999999999 8.775252 -8.184751999999996 0 0 0
800 0 8 -1.05 4.535251999999998 10.821582000000001 -8.184751999999996 0 0 0
1287 0 8 -1.05 0.2215820000000015 10.895252000000001 -8.258422000000003 1 0 0
791 0 8 -1.05 8.701582 10.895252000000001 -8.258422000000003 0 0 0
300 0 8 -1.05 10.895252000000001 8.701582 -8.258422000000003 0 0 0
1045 1 7 1.575 11.918417000000002 11.918417000000002 -9.281587000000002 0 0 0
78 1 7 1.575 1.3184170000000002 1.3184170000000002 -7.161586999999997 0 0 0
99 1 7 1.575 5.5584169999999995 5.5584169999999995 -7.161586999999997 0 0 0
95 1 7 1.575 3.4384170000000003 7.678417 -5.041587000000003 0 0 0
88 1 7 1.575 7.678417 3.4384170000000003 -5.041587000000003 0 0 0
80 2 6 1.05 2.3784170000000002 2.3784170000000002 -3.981587000000008 0 0 0
101 2 7 1.575 6.618416999999998 6.618416999999998 -3.981587000000008 0 0 0
93 2 7 1.575 2.3784170000000002 4.498416999999998 -6.101587000000002 0 0 0
90 2 7 1.575 0.258417 6.618416999999998 -6.101587000000002 0 0 0
83 2 7 1.575 4.498416999999998 2.3784170000000002 -6.101587000000002 0 0 0
86 2 6 1.05 6.618416999999998 0.258417 -6.101587000000002 0 0 0
76 2 6 1.05 0.258417 0.258417 -3.981587000000008 0 0 0
97 2 6 1.05 4.498416999999998 4.498416999999998 -3.981587000000008 0 0 0
82 0 8 -1.05 4.461582 2.415252 -4.0184219999999975 0 0 0
98 0 8 -1.05 4.535251999999998 6.581580999999999 -3.944752000000001 0 0 0
91 0 8 -1.05 0.295252 4.535251999999998 -6.138421999999995 0 0 0
102 0 8 -1.05 6.655251999999998 6.655251999999998 -6.064752000000002 0 0 0
96 0 8 -1.05 4.461582 4.461582 -6.064752000000002 0 0 0
79 0 8 -1.05 2.3415820000000003 0.295252 -3.944752000000001 0 0 0
85 0 8 -1.05 6.581580999999999 2.3415820000000003 -6.138421999999995 0 0 0
94 0 8 -1.05 2.415252 4.461582 -4.0184219999999975 0 0 0
100 0 8 -1.05 6.581580999999999 4.535251999999998 -3.944752000000001 0 0 0
92 0 8 -1.05 2.3415820000000003 6.581580999999999 -6.138421999999995 0 0 0
84 0 8 -1.05 4.535251999999998 0.295252 -6.138421999999995 0 0 0
77 0 8 -1.05 0.295252 2.3415820000000003 -3.944752000000001 0 0 0
81 0 8 -1.05 2.415252 2.415252 -6.064752000000002 0 0 0
1575 0 8 -1.05 6.655251999999998 0.2215820000000015 -4.0184219999999975 0 1 0
585 0 8 -1.05 0.2215820000000015 6.655251999999998 -4.0184219999999975 1 0 0
2059 0 8 -1.05 0.2215820000000015 0.2215820000000015 -6.064752000000002 1 1 0
89 0 8 -1.05 8.701582 6.655251999999998 -4.0184219999999975 0 0 0
1563 0 8 -1.05 8.701582 0.2215820000000015 -6.064752000000002 0 1 0
326 1 7 1.575 9.798417 1.3184170000000002 -7.161586999999997 0 0 0
343 1 7 1.575 11.918417000000002 7.678417 -5.041587000000003 0 0 0
328 2 6 1.05 10.858417000000001 2.3784170000000002 -3.981587000000008 0 0 0
341 2 7 1.575 10.858417000000001 4.498416999999998 -6.101587000000002 0 0 0
338 2 7 1.575 8.738417 6.618416999999998 -6.101587000000002 0 0 0
324 2 7 1.575 8.738417 0.258417 -3.981587000000008 0 0 0
339 0 8 -1.05 8.775252 4.535251999999998 -6.138421999999995 0 0 0
327 0 8 -1.05 10.821582000000001 0.295252 -3.944752000000001 0 0 0
342 0 8 -1.05 10.895252000000001 4.461582 -4.0184219999999975 0 0 0
340 0 8 -1.05 10.821582000000001 6.581580999999999 -6.138421999999995 0 0 0
325 0 8 -1.05 8.775252 2.3415820000000003 -3.944752000000001 0 0 0
329 0 8 -1.05 10.895252000000001 2.415252 -6.064752000000002 0 0 0
87 0 8 -1.05 6.655251999999998 8.701582 -4.0184219999999975 0 0 0
822 1 7 1.575 1.3184170000000002 9.798417 -7.161586999999997 0 0 0
832 1 7 1.575 7.678417 11.918417000000002 -5.041587000000003 0 0 0
824 2 6 1.05 2.3784170000000002 10.858417000000001 -3.981587000000008 0 0 0
827 2 7 1.575 4.498416999999998 10.858417000000001 -6.101587000000002 0 0 0
830 2 6 1.05 6.618416999999998 8.738417 -6.101587000000002 0 0 0
820 2 6 1.05 0.258417 8.738417 -3.981587000000008 0 0 0
826 0 8 -1.05 4.461582 10.895252000000001 -4.0184219999999975 0 0 0
823 0 8 -1.05 2.3415820000000003 8.775252 -3.944752000000001 0 0 0
829 0 8 -1.05 6.581580999999999 10.821582000000001 -6.138421999999995 0 0 0
828 0 8 -1.05 4.535251999999998 8.775252 -6.138421999999995 0 0 0
821 0 8 -1.05 0.295252 10.821582000000001 -3.944752000000001 0 0 0
825 0 8 -1.05 2.415252 10.895252000000001 -6.064752000000002 0 0 0
571 0 8 -1.05 0.2215820000000015 8.701582 -6.064752000000002 1 0 0
75 0 8 -1.05 8.701582 8.701582 -6.064752000000002 0 0 0
1070 1 7 1.575 9.798417 9.798417 -7.161586999999997 0 0 0
1072 2 6 1.05 10.858417000000001 10.858417000000001 -3.981587000000008 0 0 0
1068 2 6 1.05 8.738417 8.738417 -3.981587000000008 0 0 0
1071 0 8 -1.05 10.821582000000001 8.775252 -3.944752000000001 0 0 0
1069 0 8 -1.05 8.775252 10.821582000000001 -3.944752000000001 0 0 0
1073 0 8 -1.05 10.895252000000001 10.895252000000001 -6.064752000000002 0 0 0
126 1 7 1.575 7.678417 7.678417 -0.8015869999999978 0 0 0
112 1 7 1.575 5.5584169999999995 1.3184170000000002 -2.9215870000000024 0 0 0
117 1 7 1.575 1.3184170000000002 5.5584169999999995 -2.9215870000000024 0 0 0
109 1 7 1.575 3.4384170000000003 3.4384170000000003 -0.8015869999999978 0 0 0
124 2 7 1.575 6.618416999999998 4.498416999999998 -1.861587 0 0 0
104 2 7 1.575 0.258417 2.3784170000000002 -1.861587 0 0 0
121 2 6 1.05 4.498416999999998 6.618416999999998 -1.861587 0 0 0
107 2 7 1.575 2.3784170000000002 0.258417 -1.861587 0 0 0
106 0 8 -1.05 2.3415820000000003 2.3415820000000003 -1.8984230000000082 0 0 0
122 0 8 -1.05 4.535251999999998 4.535251999999998 -1.8984230000000082 0 0 0
119 0 8 -1.05 2.415252 6.655251999999998 -1.8247519999999966 0 0 0
105 0 8 -1.05 0.295252 0.295252 -1.8984230000000082 0 0 0
114 0 8 -1.05 6.655251999999998 2.415252 -1.8247519999999966 0 0 0
123 0 8 -1.05 6.581580999999999 6.581580999999999 -1.8984230000000082 0 0 0
120 0 8 -1.05 4.461582 6.655251999999998 0.22157800000000805 0 0 0
125 0 8 -1.05 6.655251999999998 4.461582 0.22157800000000805 0 0 0
1598 0 8 -1.05 4.461582 0.2215820000000015 -1.8247519999999966 0 1 0
1596 0 8 -1.05 2.415252 0.2215820000000015 0.22157800000000805 0 1 0
611 0 8 -1.05 0.2215820000000015 4.461582 -1.8247519999999966 1 0 0
599 0 8 -1.05 0.2215820000000015 2.415252 0.22157800000000805 1 0 0
115 0 8 -1.05 8.701582 4.461582 -1.8247519999999966 0 0 0
103 0 8 -1.05 8.701582 2.415252 0.22157800000000805 0 0 0
365 1 7 1.575 9.798417 5.5584169999999995 -2.9215870000000024 0 0 0
357 1 7 1.575 11.918417000000002 3.4384170000000003 -0.8015869999999978 0 0 0
352 2 6 1.05 8.738417 2.3784170000000002 -1.861587 0 0 0
355 2 7 1.575 10.858417000000001 0.258417 -1.861587 0 0 0
354 0 8 -1.05 10.821582000000001 2.3415820000000003 -1.8984230000000082 0 0 0
367 0 8 -1.05 10.895252000000001 6.655251999999998 -1.8247519999999966 0 0 0
353 0 8 -1.05 8.775252 0.295252 -1.8984230000000082 0 0 0
1844 0 8 -1.05 10.895252000000001 0.2215820000000015 0.22157800000000805 0 1 0
110 0 8 -1.05 4.461582 8.701582 -1.8247519999999966 0 0 0
108 0 8 -1.05 2.415252 8.701582 0.22157800000000805 0 0 0
856 1 7 1.575 5.5584169999999995 9.798417 -2.9215870000000024 0 0 0
853 1 7 1.575 3.4384170000000003 11.918417000000002 -0.8015869999999978 0 0 0
848 2 7 1.575 0.258417 10.858417000000001 -1.861587 0 0 0
851 2 7 1.575 2.3784170000000002 8.738417 -1.861587 0 0 0
850 0 8 -1.05 2.3415820000000003 10.821582000000001 -1.8984230000000082 0 0 0
849 0 8 -1.05 0.295252 8.775252 -1.8984230000000082 0 0 0
858 0 8 -1.05 6.655251999999998 10.895252000000001 -1.8247519999999966 0 0 0
1343 0 8 -1.05 0.2215820000000015 10.895252000000001 0.22157800000000805 1 0 0
847 0 8 -1.05 8.701582 10.895252000000001 0.22157800000000805 0 0 0
356 0 8 -1.05 10.895252000000001 8.701582 0.22157800000000805 0 0 0
1101 1 7 1.575 11.918417000000002 11.918417000000002 -0.8015869999999978 0 0 0
1096 2 7 1.575 8.738417 10.858417000000001 -1.861587 0 0 0
1099 2 7 1.575 10.858417000000001 8.738417 -1.861587 0 0 0
1098 0 8 -1.05 10.821582000000001 10.821582000000001 -1.8984230000000082 0 0 0
1097 0 8 -1.05 8.775252 8.775252 -1.8984230000000082 0 0 0
129 0 8 -1.05 2.415252 2.415252 2.415247999999991 0 0 0
140 0 8 -1.05 2.3415820000000003 4.535251999999998 0.29524799999999374 0 0 0
131 0 8 -1.05 4.535251999999998 0.295252 2.3415779999999913 0 0 0
141 0 8 -1.05 2.3415820000000003 6.581580999999999 2.3415779999999913 0 0 0
132 0 8 -1.05 4.535251999999998 2.3415820000000003 0.29524799999999374 0 0 0
134 0 8 -1.05 6.581580999999999 2.3415820000000003 2.3415779999999913 0 0 0
144 0 8 -1.05 4.461582 4.461582 2.415247999999991 0 0 0
139 0 8 -1.05 0.295252 6.581580999999999 0.29524799999999374 0 0 0
146 0 8 -1.05 6.655251999999998 6.655251999999998 2.415247999999991 0 0 0
138 0 8 -1.05 0.295252 4.535251999999998 2.3415779999999913 0 0 0
133 0 8 -1.05 6.581580999999999 0.295252 0.29524799999999374 0 0 0
118 2 7 1.575 2.3784170000000002 6.618416999999998 0.25841300000000444 0 0 0
113 2 6 1.05 6.618416999999998 2.3784170000000002 0.25841300000000444 0 0 0
135 2 7 1.575 6.618416999999998 0.258417 2.3784129999999877 0 0 0
130 2 6 1.05 4.498416999999998 2.3784170000000002 2.3784129999999877 0 0 0
116 2 6 1.05 0.258417 4.498416999999998 0.25841300000000444 0 0 0
137 2 6 1.05 0.258417 6.618416999999998 2.3784129999999877 0 0 0
142 2 7 1.575 2.3784170000000002 4.498416999999998 2.3784129999999877 0 0 0
128 1 7 1.575 1.3184170000000002 1.3184170000000002 1.3184129999999925 0 0 0
143 1 7 1.575 3.4384170000000003 7.678417 3.43841299999999 0 0 0
136 1 7 1.575 7.678417 3.4384170000000003 3.43841299999999 0 0 0
145 1 7 1.575 5.5584169999999995 5.5584169999999995 1.3184129999999925 0 0 0
111 2 7 1.575 4.498416999999998 0.258417 0.25841300000000444 0 0 0
2111 0 8 -1.05 0.2215820000000015 0.2215820000000015 2.415247999999991 1 1 0
1615 0 8 -1.05 8.701582 0.2215820000000015 2.415247999999991 0 1 0
377 0 8 -1.05 10.895252000000001 2.415252 2.415247999999991 0 0 0
388 0 8 -1.05 10.821582000000001 4.535251999999998 0.29524799999999374 0 0 0
389 0 8 -1.05 10.821582000000001 6.581580999999999 2.3415779999999913 0 0 0
387 0 8 -1.05 8.775252 6.581580999999999 0.29524799999999374 0 0 0
386 0 8 -1.05 8.775252 4.535251999999998 2.3415779999999913 0 0 0
366 2 6 1.05 10.858417000000001 6.618416999999998 0.25841300000000444 0 0 0
364 2 7 1.575 8.738417 4.498416999999998 0.25841300000000444 0 0 0
385 2 7 1.575 8.738417 6.618416999999998 2.3784129999999877 0 0 0
390 2 6 1.05 10.858417000000001 4.498416999999998 2.3784129999999877 0 0 0
376 1 7 1.575 9.798417 1.3184170000000002 1.3184129999999925 0 0 0
391 1 7 1.575 11.918417000000002 7.678417 3.43841299999999 0 0 0
873 0 8 -1.05 2.415252 10.895252000000001 2.415247999999991 0 0 0
875 0 8 -1.05 4.535251999999998 8.775252 2.3415779999999913 0 0 0
876 0 8 -1.05 4.535251999999998 10.821582000000001 0.29524799999999374 0 0 0
878 0 8 -1.05 6.581580999999999 10.821582000000001 2.3415779999999913 0 0 0
877 0 8 -1.05 6.581580999999999 8.775252 0.29524799999999374 0 0 0
857 2 6 1.05 6.618416999999998 10.858417000000001 0.25841300000000444 0 0 0
879 2 7 1.575 6.618416999999998 8.738417 2.3784129999999877 0 0 0
874 2 7 1.575 4.498416999999998 10.858417000000001 2.3784129999999877 0 0 0
872 1 7 1.575 1.3184170000000002 9.798417 1.3184129999999925 0 0 0
880 1 7 1.575 7.678417 11.918417000000002 3.43841299999999 0 0 0
855 2 6 1.05 4.498416999999998 8.738417 0.25841300000000444 0 0 0
623 0 8 -1.05 0.2215820000000015 8.701582 2.415247999999991 1 0 0
127 0 8 -1.05 8.701582 8.701582 2.415247999999991 0 0 0
1121 0 8 -1.05 10.895252000000001 10.895252000000001 2.415247999999991 0 0 0
1120 1 7 1.575 9.798417 9.798417 1.3184129999999925 0 0 0
171 0 8 -1.05 6.581580999999999 6.581580999999999 6.581576999999989 0 0 0
150 0 8 -1.05 0.295252 2.3415820000000003 4.535248000000003 0 0 0
160 0 8 -1.05 6.655251999999998 2.415252 6.655248000000007 0 0 0
170 0 8 -1.05 6.581580999999999 4.535251999999998 4.535248000000003 0 0 0
164 0 8 -1.05 2.415252 4.461582 4.461577999999996 0 0 0
149 0 8 -1.05 0.295252 0.295252 6.581576999999989 0 0 0
165 0 8 -1.05 2.415252 6.655251999999998 6.655248000000007 0 0 0
151 0 8 -1.05 2.3415820000000003 0.295252 4.535248000000003 0 0 0
168 0 8 -1.05 4.535251999999998 4.535251999999998 6.581576999999989 0 0 0
152 0 8 -1.05 2.3415820000000003 2.3415820000000003 6.581576999999989 0 0 0
169 0 8 -1.05 4.535251999999998 6.581580999999999 4.535248000000003 0 0 0
157 0 8 -1.05 4.461582 2.415252 4.461577999999996 0 0 0
166 2 6 1.05 4.498416999999998 4.498416999999998 4.498412999999999 0 0 0
147 2 6 1.05 0.258417 0.258417 4.498412999999999 0 0 0
153 2 7 1.575 2.3784170000000002 0.258417 6.618413000000004 0 0 0
167 2 7 1.575 4.498416999999998 6.618416999999998 6.618413000000004 0 0 0
148 2 6 1.05 0.258417 2.3784170000000002 6.618413000000004 0 0 0
158 1 7 1.575 5.5584169999999995 1.3184170000000002 5.558413000000002 0 0 0
163 1 7 1.575 1.3184170000000002 5.5584169999999995 5.558413000000002 0 0 0
154 2 7 1.575 2.3784170000000002 2.3784170000000002 4.498412999999999 0 0 0
173 2 6 1.05 6.618416999999998 6.618416999999998 4.498412999999999 0 0 0
172 2 7 1.575 6.618416999999998 4.498416999999998 6.618413000000004 0 0 0
174 1 7 1.575 7.678417 7.678417 7.678413000000006 0 0 0
155 1 7 1.575 3.4384170000000003 3.4384170000000003 7.678413000000006 0 0 0
1644 0 8 -1.05 4.461582 0.2215820000000015 6.655248000000007 0 1 0
1647 0 8 -1.05 6.655251999999998 0.2215820000000015 4.461577999999996 0 1 0
658 0 8 -1.05 0.2215820000000015 6.655251999999998 4.461577999999996 1 0 0
657 0 8 -1.05 0.2215820000000015 4.461582 6.655248000000007 1 0 0
162 0 8 -1.05 8.701582 6.655251999999998 4.461577999999996 0 0 0
161 0 8 -1.05 8.701582 4.461582 6.655248000000007 0 0 0
398 0 8 -1.05 8.775252 2.3415820000000003 4.535248000000003 0 0 0
412 0 8 -1.05 10.895252000000001 4.461582 4.461577999999996 0 0 0
397 0 8 -1.05 8.775252 0.295252 6.581576999999989 0 0 0
413 0 8 -1.05 10.895252000000001 6.655251999999998 6.655248000000007 0 0 0
399 0 8 -1.05 10.821582000000001 0.295252 4.535248000000003 0 0 0
400 0 8 -1.05 10.821582000000001 2.3415820000000003 6.581576999999989 0 0 0
395 2 6 1.05 8.738417 0.258417 4.498412999999999 0 0 0
401 2 7 1.575 10.858417000000001 0.258417 6.618413000000004 0 0 0
396 2 7 1.575 8.738417 2.3784170000000002 6.618413000000004 0 0 0
411 1 7 1.575 9.798417 5.5584169999999995 5.558413000000002 0 0 0
402 2 6 1.05 10.858417000000001 2.3784170000000002 4.498412999999999 0 0 0
403 1 7 1.575 11.918417000000002 3.4384170000000003 7.678413000000006 0 0 0
156 0 8 -1.05 4.461582 8.701582 6.655248000000007 0 0 0
159 0 8 -1.05 6.655251999999998 8.701582 4.461577999999996 0 0 0
894 0 8 -1.05 0.295252 10.821582000000001 4.535248000000003 0 0 0
904 0 8 -1.05 6.655251999999998 10.895252000000001 6.655248000000007 0 0 0
893 0 8 -1.05 0.295252 8.775252 6.581576999999989 0 0 0
895 0 8 -1.05 2.3415820000000003 8.775252 4.535248000000003 0 0 0
896 0 8 -1.05 2.3415820000000003 10.821582000000001 6.581576999999989 0 0 0
901 0 8 -1.05 4.461582 10.895252000000001 4.461577999999996 0 0 0
891 2 7 1.575 0.258417 8.738417 4.498412999999999 0 0 0
897 2 7 1.575 2.3784170000000002 8.738417 6.618413000000004 0 0 0
892 2 6 1.05 0.258417 10.858417000000001 6.618413000000004 0 0 0
902 1 7 1.575 5.5584169999999995 9.798417 5.558413000000002 0 0 0
898 2 6 1.05 2.3784170000000002 10.858417000000001 4.498412999999999 0 0 0
899 1 7 1.575 3.4384170000000003 11.918417000000002 7.678413000000006 0 0 0
1142 0 8 -1.05 8.775252 10.821582000000001 4.535248000000003 0 0 0
1141 0 8 -1.05 8.775252 8.775252 6.581576999999989 0 0 0
1143 0 8 -1.05 10.821582000000001 8.775252 4.535248000000003 0 0 0
1144 0 8 -1.05 10.821582000000001 10.821582000000001 6.581576999999989 0 0 0
1139 2 6 1.05 8.738417 8.738417 4.498412999999999 0 0 0
1145 2 7 1.575 10.858417000000001 8.738417 6.618413000000004 0 0 0
1140 2 7 1.575 8.738417 10.858417000000001 6.618413000000004 0 0 0
1146 2 6 1.05 10.858417000000001 10.858417000000001 4.498412999999999 0 0 0
1147 1 7 1.575 11.918417000000002 11.918417000000002 7.678413000000006 0 0 0
179 0 8 -1.05 2.415252 2.415252 10.895247999999995 0 0 0
193 0 8 -1.05 2.3415820000000003 4.535251999999998 8.775248000000012 0 0 0
182 0 8 -1.05 4.535251999999998 0.295252 10.821577999999995 0 0 0
194 0 8 -1.05 2.3415820000000003 6.581580999999999 10.821577999999995 0 0 0
183 0 8 -1.05 4.535251999999998 2.3415820000000003 8.775248000000012 0 0 0
185 0 8 -1.05 6.581580999999999 2.3415820000000003 10.821577999999995 0 0 0
198 0 8 -1.05 4.461582 4.461582 10.895247999999995 0 0 0
192 0 8 -1.05 0.295252 6.581580999999999 8.775248000000012 0 0 0
202 0 8 -1.05 6.655251999999998 6.655251999999998 10.895247999999995 0 0 0
191 0 8 -1.05 0.295252 4.535251999999998 10.821577999999995 0 0 0
184 0 8 -1.05 6.581580999999999 0.295252 8.775248000000012 0 0 0
196 2 6 1.05 2.3784170000000002 6.618416999999998 8.738413000000008 0 0 0
187 2 6 1.05 6.618416999999998 2.3784170000000002 8.738413000000008 0 0 0
186 2 7 1.575 6.618416999999998 0.258417 10.858412999999992 0 0 0
181 2 7 1.575 4.498416999999998 2.3784170000000002 10.858412999999992 0 0 0
189 2 6 1.05 0.258417 4.498416999999998 8.738413000000008 0 0 0
190 2 7 1.575 0.258417 6.618416999999998 10.858412999999992 0 0 0
195 2 7 1.575 2.3784170000000002 4.498416999999998 10.858412999999992 0 0 0
180 2 6 1.05 4.498416999999998 0.258417 8.738413000000008 0 0 0
200 1 7 1.575 5.5584169999999995 5.5584169999999995 9.798412999999996 0 0 0
177 1 7 1.575 1.3184170000000002 1.3184170000000002 9.798412999999996 0 0 0
201 0 8 -1.05 6.655251999999998 4.461582 8.701578000000005 0 0 0
199 0 8 -1.05 4.461582 6.655251999999998 8.701578000000005 0 0 0
1666 0 8 -1.05 2.415252 0.2215820000000015 8.701578000000005 0 1 0
672 0 8 -1.05 0.2215820000000015 2.415252 8.701578000000005 1 0 0
2159 0 8 -1.05 0.2215820000000015 0.2215820000000015 10.895247999999995 1 1 0
176 0 8 -1.05 8.701582 2.415252 8.701578000000005 0 0 0
1663 0 8 -1.05 8.701582 0.2215820000000015 10.895247999999995 0 1 0
427 0 8 -1.05 10.895252000000001 2.415252 10.895247999999995 0 0 0
441 0 8 -1.05 10.821582000000001 4.535251999999998 8.775248000000012 0 0 0