LAMMPS data file via write_data, version 21 Nov 2023, timestep = 10583494, units = real

2340 atoms
10 atom types
180 bonds
6 bond types
324 angles
6 angle types
0 dihedrals
2 dihedral types
36 impropers
2 improper types

0 25.44 xlo xhi
0 25.44 ylo yhi
-40.390587 40.907413000000005 zlo zhi

Masses

1 12.011
2 1.008
3 15.9994
4 15.9994
5 1.008
6 55.845
7 55.845
8 15.9994
9 15.9994
10 1.008

Pair Coeffs # lj/cut/coul/long

1 0.0988 3.31521
2 0.0161 2.4473
3 0.1463 3.04812
4 0.093 3.24287
5 0.0047 0.537925
6 9.0298e-07 4.9062
7 9.0298e-07 4.9062
8 0.1554 3.16554
9 0.1554 3.16554
10 0 0

Bond Coeffs # harmonic

1 361.8 1.105
2 652.57 1.218
3 383.13 1.351
4 563.51 0.973
5 554.135 1
6 0 2.08

Angle Coeffs # harmonic

1 51.617 106.55
2 65.93 123.65
3 65.262 109.49
4 115.745 122.1
5 118.817 130.25
6 30 109.47

Dihedral Coeffs # fourier

1 1 2.3 2 180
2 2 2.3 2 180 1.9 1 0

Improper Coeffs # cvff

1 10.5 -1 2
2 10.5 -1 2

Atoms # full

22 0 1 0.731 3.254999141671527 7.698835861870578 -19.22934497694413 0 0 0
21 0 2 -0.123 3.244645483226166 7.702986052097238 -20.328647177484765 0 0 0
20 0 3 -0.804 2.488608605165903 6.918818527537255 -18.64882587483226 0 0 0
1832 0 1 0.731 7.493452861314375 3.449223812421584 -19.22976170131726 0 1 0
1831 0 2 -0.123 7.490712170913221 3.4456827881122134 -20.329061187821324 0 1 0
1829 0 3 -0.804 6.720905596736076 2.6751223781642866 -18.64822218930605 0 1 0
282 0 1 0.731 11.743237119798113 7.701556038856009 -19.22981977072391 0 0 0
281 0 2 -0.123 11.746308418832278 7.7011149654119695 -20.329134307362917 0 0 0
280 0 3 -0.804 10.967161865115827 6.926771123046913 -18.65237408867674 0 0 0
1834 0 3 -0.804 8.269326922079884 4.225936979161287 -18.65420876998965 0 1 0
6 0 3 -0.804 4.032533815083597 8.473974487058959 -18.652584246255707 0 0 0
272 0 1 0.731 7.488600969501578 11.935292368473467 -19.2287204571537 0 0 0
271 0 2 -0.123 7.481730152936708 11.936875186815975 -20.327951168655837 0 0 0
269 0 3 -0.804 6.715874249505448 11.161157481272065 -18.646653558962733 0 0 0
23 0 8 -1.05 4.284343 6.676275 -16.738421999999996 0 0 0
15 2 7 1.575 0.08117799999999775 4.5194399999999995 -16.701586999999996 0 0 0
19 2 7 1.575 2.201177999999998 6.6394400000000005 -16.701586999999996 0 0 0
18 0 9 -0.975 2.076644226366401 4.64627677523611 -16.52980209712782 0 0 0
16 0 9 -0.975 0.21985242231053398 6.5056408202141744 -16.524823498742485 0 0 0
17 0 10 0.425 2.5929094401510717 4.123806705714253 -17.259367618845484 0 0 0
1561 0 8 -1.05 0.04434299999999958 2.4362749999999984 -16.738421999999996 0 1 0
1562 0 8 -1.05 2.238012999999998 0.24260500000000107 -16.738421999999996 0 1 0
1844 0 8 -1.05 6.478013000000001 4.4826049999999995 -16.738421999999996 0 1 0
1824 2 7 1.575 4.321178 0.27943999999999747 -16.701586999999996 0 1 0
1830 2 7 1.575 6.441178000000001 2.3994399999999985 -16.701586999999996 0 1 0
1825 0 9 -0.975 4.4512183531533855 2.2685776659380914 -16.53005852110453 0 1 0
1828 0 9 -0.975 6.312162216974973 0.40847211362808394 -16.53052021055764 0 1 0
1823 0 10 0.425 3.927746734372598 2.7894660306121044 -17.256402433069812 0 1 0
275 2 7 1.575 8.561177999999998 4.5194399999999995 -16.701586999999996 0 0 0
279 2 7 1.575 10.681178 6.6394400000000005 -16.701586999999996 0 0 0
278 0 9 -0.975 10.55110551780509 4.649065951047248 -16.531732692257645 0 0 0
276 0 9 -0.975 8.690766583797581 6.509833619088321 -16.53169485105473 0 0 0
277 0 10 0.425 11.07299978910552 4.129004166266949 -17.259347907056984 0 0 0
273 0 10 0.425 8.169243914469693 7.029892226751434 -17.259605029910183 0 0 0
1821 0 8 -1.05 8.524343 2.4362749999999984 -16.738421999999996 0 1 0
1822 0 8 -1.05 10.718013 0.24260500000000107 -16.738421999999996 0 1 0
2083 0 10 0.425 12.412089968176097 2.789436143529784 -17.2566923416082 0 1 0
1 0 8 -1.05 0.04434299999999958 10.916274999999999 -16.738421999999996 0 0 0
2 0 8 -1.05 2.238012999999998 8.722605 -16.738421999999996 0 0 0
264 2 7 1.575 4.321178 8.759439999999998 -16.701586999999996 0 0 0
270 2 7 1.575 6.441178000000001 10.879439999999999 -16.701586999999996 0 0 0
265 0 9 -0.975 4.449081691114504 10.756641514852276 -16.524778405016665 0 0 0
268 0 9 -0.975 6.308660259083777 8.893733959732046 -16.5295795277625 0 0 0
267 0 10 0.425 6.829029256872794 8.369704447946502 -17.256268612127776 0 0 0
263 0 10 0.425 3.9256076207352995 11.26793470326775 -17.258887748527584 0 0 0
261 0 8 -1.05 8.524343 10.916274999999999 -16.738421999999996 0 0 0
262 0 8 -1.05 10.718013 8.722605 -16.738421999999996 0 0 0
523 0 10 0.425 12.411371338067731 11.271492962276582 -17.25946939706536 0 0 0
797 0 10 0.425 2.5879064108634613 12.60465154632582 -17.258263833446915 0 0 0
1057 0 10 0.425 11.073876130195567 12.608433889289936 -17.25684837066756 0 0 0
266 0 3 -0.804 12.515605710759218 8.477451312016075 -18.65012224903335 0 0 0
274 0 3 -0.804 8.266113898260324 12.709608049972458 -18.652337966630608 0 0 0
1881 2 7 1.575 4.321178 0.27943999999999747 -8.221587 0 1 0
1885 2 6 1.05 6.441178000000001 2.3994399999999985 -8.221587 0 1 0
1882 0 8 -1.05 4.358013 2.3626039999999975 -8.184751999999996 0 1 0
1884 0 8 -1.05 6.404343000000001 0.3162749999999974 -8.184751999999996 0 1 0
328 2 6 1.05 8.561177999999998 4.5194399999999995 -8.221587 0 0 0
333 0 8 -1.05 10.718013 6.676275 -10.304752000000004 0 0 0
331 0 8 -1.05 10.644341999999998 4.556274999999999 -8.184751999999996 0 0 0
332 2 6 1.05 10.681178 6.6394400000000005 -8.221587 0 0 0
329 0 8 -1.05 8.598012999999998 6.6026050000000005 -8.184751999999996 0 0 0
1879 1 7 1.575 11.741178 3.459439999999997 -9.281587000000002 0 1 0
1877 2 7 1.575 10.681178 0.27943999999999747 -10.341587000000004 0 1 0
1874 2 7 1.575 8.561177999999998 2.3994399999999985 -10.341587000000004 0 1 0
1875 0 8 -1.05 8.598012999999998 0.3162749999999974 -10.378423000000005 0 1 0
1873 0 8 -1.05 8.524343 2.4362749999999984 -8.258422000000003 0 1 0
1887 0 8 -1.05 8.524343 4.4826049999999995 -10.304752000000004 0 1 0
1878 0 8 -1.05 10.718013 0.24260500000000107 -8.258422000000003 0 1 0
1876 0 8 -1.05 10.644341999999998 2.3626039999999975 -10.378423000000005 0 1 0
59 1 7 1.575 3.2611779999999992 11.93944 -9.281587000000002 0 0 0
57 2 6 1.05 2.201177999999998 8.759439999999998 -10.341587000000004 0 0 0
54 2 7 1.575 0.08117799999999775 10.879439999999999 -10.341587000000004 0 0 0
60 0 8 -1.05 4.284343 8.722605 -10.304752000000004 0 0 0
58 0 8 -1.05 2.238012999999998 8.722605 -8.258422000000003 0 0 0
56 0 8 -1.05 2.1643419999999987 10.842603999999998 -10.378423000000005 0 0 0
53 0 8 -1.05 0.04434299999999958 10.916274999999999 -8.258422000000003 0 0 0
55 0 8 -1.05 0.1180129999999977 8.796274999999998 -10.378423000000005 0 0 0
326 0 8 -1.05 6.478013000000001 10.916274999999999 -10.304752000000004 0 0 0
321 2 7 1.575 4.321178 8.759439999999998 -8.221587 0 0 0
325 2 6 1.05 6.441178000000001 10.879439999999999 -8.221587 0 0 0
324 0 8 -1.05 6.404343000000001 8.796274999999998 -8.184751999999996 0 0 0
322 0 8 -1.05 4.358013 10.842603999999998 -8.184751999999996 0 0 0
317 2 7 1.575 10.681178 8.759439999999998 -10.341587000000004 0 0 0
319 1 7 1.575 11.741178 11.93944 -9.281587000000002 0 0 0
314 2 7 1.575 8.561177999999998 10.879439999999999 -10.341587000000004 0 0 0
315 0 8 -1.05 8.598012999999998 8.796274999999998 -10.378423000000005 0 0 0
318 0 8 -1.05 10.718013 8.722605 -8.258422000000003 0 0 0
313 0 8 -1.05 8.524343 10.916274999999999 -8.258422000000003 0 0 0
316 0 8 -1.05 10.644341999999998 10.842603999999998 -10.378423000000005 0 0 0
40 2 7 1.575 0.08117799999999775 6.6394400000000005 -14.581587000000003 0 0 0
43 2 7 1.575 2.201177999999998 4.5194399999999995 -14.581587000000003 0 0 0
42 0 8 -1.05 2.1643419999999987 6.6026050000000005 -14.618421999999995 0 0 0
41 0 8 -1.05 0.1180129999999977 4.556274999999999 -14.618421999999995 0 0 0
70 1 7 1.575 1.1411779999999991 5.57944 -11.401586999999996 0 0 0
45 1 7 1.575 3.2611779999999992 7.69944 -13.521587000000004 0 0 0
39 0 8 -1.05 0.04434299999999958 6.676275 -12.498421999999998 0 0 0
1588 1 7 1.575 1.1411779999999991 1.3394399999999997 -15.641586999999998 0 1 0
1591 0 8 -1.05 2.238012999999998 2.4362749999999984 -14.544752000000003 0 1 0
1585 0 8 -1.05 0.04434299999999958 0.24260500000000107 -14.544752000000003 0 1 0
1606 0 8 -1.05 4.284343 4.4826049999999995 -14.544752000000003 0 1 0
1590 2 6 1.05 2.201177999999998 2.3994399999999985 -12.461586999999994 0 1 0
1586 2 7 1.575 0.08117799999999775 0.27943999999999747 -12.461586999999994 0 1 0
1587 0 8 -1.05 0.1180129999999977 2.3626039999999975 -12.424751999999998 0 1 0
1604 0 8 -1.05 2.238012999999998 4.4826049999999995 -12.498421999999998 0 1 0
1589 0 8 -1.05 2.1643419999999987 0.3162749999999974 -12.424751999999998 0 1 0
1592 0 8 -1.05 4.284343 2.4362749999999984 -12.498421999999998 0 1 0
309 1 7 1.575 5.381178 5.57944 -15.641586999999998 0 0 0
312 0 8 -1.05 6.478013000000001 6.676275 -14.544752000000003 0 0 0
311 2 6 1.05 6.441178000000001 6.6394400000000005 -12.461586999999994 0 0 0
307 2 6 1.05 4.321178 4.5194399999999995 -12.461586999999994 0 0 0
310 0 8 -1.05 6.404343000000001 4.556274999999999 -12.424751999999998 0 0 0
308 0 8 -1.05 4.358013 6.6026050000000005 -12.424751999999998 0 0 0
1856 2 7 1.575 6.441178000000001 0.27943999999999747 -14.581587000000003 0 1 0
1853 2 7 1.575 4.321178 2.3994399999999985 -14.581587000000003 0 1 0
1854 0 8 -1.05 4.358013 0.3162749999999974 -14.618421999999995 0 1 0
1855 0 8 -1.05 6.404343000000001 2.3626039999999975 -14.618421999999995 0 1 0
1858 1 7 1.575 7.501178 3.459439999999997 -13.521587000000004 0 1 0
1883 1 7 1.575 5.381178 1.3394399999999997 -11.401586999999996 0 1 0
1857 0 8 -1.05 6.478013000000001 0.24260500000000107 -12.498421999999998 0 1 0
300 2 7 1.575 8.561177999999998 6.6394400000000005 -14.581587000000003 0 0 0
303 2 7 1.575 10.681178 4.5194399999999995 -14.581587000000003 0 0 0
302 0 8 -1.05 10.644341999999998 6.6026050000000005 -14.618421999999995 0 0 0
301 0 8 -1.05 8.598012999999998 4.556274999999999 -14.618421999999995 0 0 0
330 1 7 1.575 9.621178 5.57944 -11.401586999999996 0 0 0
305 1 7 1.575 11.741178 7.69944 -13.521587000000004 0 0 0
299 0 8 -1.05 8.524343 6.676275 -12.498421999999998 0 0 0
1848 1 7 1.575 9.621178 1.3394399999999997 -15.641586999999998 0 1 0
1851 0 8 -1.05 10.718013 2.4362749999999984 -14.544752000000003 0 1 0
1845 0 8 -1.05 8.524343 0.24260500000000107 -14.544752000000003 0 1 0
1850 2 6 1.05 10.681178 2.3994399999999985 -12.461586999999994 0 1 0
1846 2 6 1.05 8.561177999999998 0.27943999999999747 -12.461586999999994 0 1 0
1847 0 8 -1.05 8.598012999999998 2.3626039999999975 -12.424751999999998 0 1 0
1864 0 8 -1.05 10.718013 4.4826049999999995 -12.498421999999998 0 1 0
1849 0 8 -1.05 10.644341999999998 0.3162749999999974 -12.424751999999998 0 1 0
28 1 7 1.575 1.1411779999999991 9.81944 -15.641586999999998 0 0 0
31 0 8 -1.05 2.238012999999998 10.916274999999999 -14.544752000000003 0 0 0
25 0 8 -1.05 0.04434299999999958 8.722605 -14.544752000000003 0 0 0
30 2 6 1.05 2.201177999999998 10.879439999999999 -12.461586999999994 0 0 0
26 2 7 1.575 0.08117799999999775 8.759439999999998 -12.461586999999994 0 0 0
27 0 8 -1.05 0.1180129999999977 10.842603999999998 -12.424751999999998 0 0 0
29 0 8 -1.05 2.1643419999999987 8.796274999999998 -12.424751999999998 0 0 0
32 0 8 -1.05 4.284343 10.916274999999999 -12.498421999999998 0 0 0
296 2 7 1.575 6.441178000000001 8.759439999999998 -14.581587000000003 0 0 0
293 2 7 1.575 4.321178 10.879439999999999 -14.581587000000003 0 0 0
294 0 8 -1.05 4.358013 8.796274999999998 -14.618421999999995 0 0 0
295 0 8 -1.05 6.404343000000001 10.842603999999998 -14.618421999999995 0 0 0
298 1 7 1.575 7.501178 11.93944 -13.521587000000004 0 0 0
323 1 7 1.575 5.381178 9.81944 -11.401586999999996 0 0 0
297 0 8 -1.05 6.478013000000001 8.722605 -12.498421999999998 0 0 0
288 1 7 1.575 9.621178 9.81944 -15.641586999999998 0 0 0
291 0 8 -1.05 10.718013 10.916274999999999 -14.544752000000003 0 0 0
285 0 8 -1.05 8.524343 8.722605 -14.544752000000003 0 0 0
290 2 6 1.05 10.681178 10.879439999999999 -12.461586999999994 0 0 0
286 2 6 1.05 8.561177999999998 8.759439999999998 -12.461586999999994 0 0 0
287 0 8 -1.05 8.598012999999998 10.842603999999998 -12.424751999999998 0 0 0
289 0 8 -1.05 10.644341999999998 8.796274999999998 -12.424751999999998 0 0 0
74 0 8 -1.05 4.284343 6.676275 -8.258422000000003 0 0 0
73 0 8 -1.05 2.238012999999998 6.676275 -10.304752000000004 0 0 0
68 2 6 1.05 0.08117799999999775 4.5194399999999995 -8.221587 0 0 0
72 2 6 1.05 2.201177999999998 6.6394400000000005 -8.221587 0 0 0
71 0 8 -1.05 2.1643419999999987 4.556274999999999 -8.184751999999996 0 0 0
69 0 8 -1.05 0.1180129999999977 6.6026050000000005 -8.184751999999996 0 0 0
1619 1 7 1.575 3.2611779999999992 3.459439999999997 -9.281587000000002 0 1 0
1617 2 6 1.05 2.201177999999998 0.27943999999999747 -10.341587000000004 0 1 0
1614 2 7 1.575 0.08117799999999775 2.3994399999999985 -10.341587000000004 0 1 0
1620 0 8 -1.05 4.284343 0.24260500000000107 -10.304752000000004 0 1 0
1615 0 8 -1.05 0.1180129999999977 0.3162749999999974 -10.378423000000005 0 1 0
1613 0 8 -1.05 0.04434299999999958 2.4362749999999984 -8.258422000000003 0 1 0
1627 0 8 -1.05 0.04434299999999958 4.4826049999999995 -10.304752000000004 0 1 0
1618 0 8 -1.05 2.238012999999998 0.24260500000000107 -8.258422000000003 0 1 0
1616 0 8 -1.05 2.1643419999999987 2.3626039999999975 -10.378423000000005 0 1 0
340 1 7 1.575 7.501178 7.69944 -9.281587000000002 0 0 0
335 2 7 1.575 4.321178 6.6394400000000005 -10.341587000000004 0 0 0
338 2 7 1.575 6.441178000000001 4.5194399999999995 -10.341587000000004 0 0 0
337 0 8 -1.05 6.404343000000001 6.6026050000000005 -10.378423000000005 0 0 0
336 0 8 -1.05 4.358013 4.556274999999999 -10.378423000000005 0 0 0
1899 0 8 -1.05 6.478013000000001 4.4826049999999995 -8.258422000000003 0 1 0
1886 0 8 -1.05 6.478013000000001 2.4362749999999984 -10.304752000000004 0 1 0
101 1 7 1.575 3.2611779999999992 7.69944 -5.041587000000003 0 0 0
96 2 7 1.575 0.08117799999999775 6.6394400000000005 -6.101587000000002 0 0 0
99 2 7 1.575 2.201177999999998 4.5194399999999995 -6.101587000000002 0 0 0
95 0 8 -1.05 0.04434299999999958 6.676275 -4.0184219999999975 0 0 0
98 0 8 -1.05 2.1643419999999987 6.6026050000000005 -6.138421999999995 0 0 0
97 0 8 -1.05 0.1180129999999977 4.556274999999999 -6.138421999999995 0 0 0
1644 1 7 1.575 1.1411779999999991 1.3394399999999997 -7.161586999999997 0 1 0
1646 2 6 1.05 2.201177999999998 2.3994399999999985 -3.981587000000008 0 1 0
1642 2 7 1.575 0.08117799999999775 0.27943999999999747 -3.981587000000008 0 1 0
1643 0 8 -1.05 0.1180129999999977 2.3626039999999975 -3.944752000000001 0 1 0
1647 0 8 -1.05 2.238012999999998 2.4362749999999984 -6.064752000000002 0 1 0
1641 0 8 -1.05 0.04434299999999958 0.24260500000000107 -6.064752000000002 0 1 0
1660 0 8 -1.05 2.238012999999998 4.4826049999999995 -4.0184219999999975 0 1 0
1662 0 8 -1.05 4.284343 4.4826049999999995 -6.064752000000002 0 1 0
1645 0 8 -1.05 2.1643419999999987 0.3162749999999974 -3.944752000000001 0 1 0
1648 0 8 -1.05 4.284343 2.4362749999999984 -4.0184219999999975 0 1 0
365 1 7 1.575 5.381178 5.57944 -7.161586999999997 0 0 0
367 2 6 1.05 6.441178000000001 6.6394400000000005 -3.981587000000008 0 0 0
363 2 6 1.05 4.321178 4.5194399999999995 -3.981587000000008 0 0 0
366 0 8 -1.05 6.404343000000001 4.556274999999999 -3.944752000000001 0 0 0
364 0 8 -1.05 4.358013 6.6026050000000005 -3.944752000000001 0 0 0
368 0 8 -1.05 6.478013000000001 6.676275 -6.064752000000002 0 0 0
1914 1 7 1.575 7.501178 3.459439999999997 -5.041587000000003 0 1 0
1912 2 6 1.05 6.441178000000001 0.27943999999999747 -6.101587000000002 0 1 0
1909 2 7 1.575 4.321178 2.3994399999999985 -6.101587000000002 0 1 0
1910 0 8 -1.05 4.358013 0.3162749999999974 -6.138421999999995 0 1 0
1913 0 8 -1.05 6.478013000000001 0.24260500000000107 -4.0184219999999975 0 1 0
1911 0 8 -1.05 6.404343000000001 2.3626039999999975 -6.138421999999995 0 1 0
361 1 7 1.575 11.741178 7.69944 -5.041587000000003 0 0 0
356 2 7 1.575 8.561177999999998 6.6394400000000005 -6.101587000000002 0 0 0
359 2 7 1.575 10.681178 4.5194399999999995 -6.101587000000002 0 0 0
355 0 8 -1.05 8.524343 6.676275 -4.0184219999999975 0 0 0
358 0 8 -1.05 10.644341999999998 6.6026050000000005 -6.138421999999995 0 0 0
357 0 8 -1.05 8.598012999999998 4.556274999999999 -6.138421999999995 0 0 0
1904 1 7 1.575 9.621178 1.3394399999999997 -7.161586999999997 0 1 0
1906 2 6 1.05 10.681178 2.3994399999999985 -3.981587000000008 0 1 0
1902 2 6 1.05 8.561177999999998 0.27943999999999747 -3.981587000000008 0 1 0
1903 0 8 -1.05 8.598012999999998 2.3626039999999975 -3.944752000000001 0 1 0
1907 0 8 -1.05 10.718013 2.4362749999999984 -6.064752000000002 0 1 0
1901 0 8 -1.05 8.524343 0.24260500000000107 -6.064752000000002 0 1 0
1920 0 8 -1.05 10.718013 4.4826049999999995 -4.0184219999999975 0 1 0
1905 0 8 -1.05 10.644341999999998 0.3162749999999974 -3.944752000000001 0 1 0
84 1 7 1.575 1.1411779999999991 9.81944 -7.161586999999997 0 0 0
86 2 6 1.05 2.201177999999998 10.879439999999999 -3.981587000000008 0 0 0
82 2 6 1.05 0.08117799999999775 8.759439999999998 -3.981587000000008 0 0 0
83 0 8 -1.05 0.1180129999999977 10.842603999999998 -3.944752000000001 0 0 0
87 0 8 -1.05 2.238012999999998 10.916274999999999 -6.064752000000002 0 0 0
81 0 8 -1.05 0.04434299999999958 8.722605 -6.064752000000002 0 0 0
85 0 8 -1.05 2.1643419999999987 8.796274999999998 -3.944752000000001 0 0 0
88 0 8 -1.05 4.284343 10.916274999999999 -4.0184219999999975 0 0 0
354 1 7 1.575 7.501178 11.93944 -5.041587000000003 0 0 0
352 2 6 1.05 6.441178000000001 8.759439999999998 -6.101587000000002 0 0 0
349 2 7 1.575 4.321178 10.879439999999999 -6.101587000000002 0 0 0
350 0 8 -1.05 4.358013 8.796274999999998 -6.138421999999995 0 0 0
353 0 8 -1.05 6.478013000000001 8.722605 -4.0184219999999975 0 0 0
351 0 8 -1.05 6.404343000000001 10.842603999999998 -6.138421999999995 0 0 0
344 1 7 1.575 9.621178 9.81944 -7.161586999999997 0 0 0
346 2 7 1.575 10.681178 10.879439999999999 -3.981587000000008 0 0 0
342 2 7 1.575 8.561177999999998 8.759439999999998 -3.981587000000008 0 0 0
343 0 8 -1.05 8.598012999999998 10.842603999999998 -3.944752000000001 0 0 0
347 0 8 -1.05 10.718013 10.916274999999999 -6.064752000000002 0 0 0
341 0 8 -1.05 8.524343 8.722605 -6.064752000000002 0 0 0
345 0 8 -1.05 10.644341999999998 8.796274999999998 -3.944752000000001 0 0 0
123 1 7 1.575 1.1411779999999991 5.57944 -2.9215870000000024 0 0 0
125 0 8 -1.05 2.238012999999998 6.676275 -1.8247519999999966 0 0 0
126 0 8 -1.05 4.284343 6.676275 0.22157800000000805 0 0 0
1675 1 7 1.575 3.2611779999999992 3.459439999999997 -0.8015869999999978 0 1 0
1673 2 7 1.575 2.201177999999998 0.27943999999999747 -1.861587 0 1 0
1670 2 6 1.05 0.08117799999999775 2.3994399999999985 -1.861587 0 1 0
1676 0 8 -1.05 4.284343 0.24260500000000107 -1.8247519999999966 0 1 0
1671 0 8 -1.05 0.1180129999999977 0.3162749999999974 -1.8984230000000082 0 1 0
1681 0 8 -1.05 0.04434299999999958 4.4826049999999995 -1.8247519999999966 0 1 0
1672 0 8 -1.05 2.1643419999999987 2.3626039999999975 -1.8984230000000082 0 1 0
1669 0 8 -1.05 0.04434299999999958 2.4362749999999984 0.22157800000000805 0 1 0
1674 0 8 -1.05 2.238012999999998 0.24260500000000107 0.22157800000000805 0 1 0
392 1 7 1.575 7.501178 7.69944 -0.8015869999999978 0 0 0
387 2 7 1.575 4.321178 6.6394400000000005 -1.861587 0 0 0
390 2 7 1.575 6.441178000000001 4.5194399999999995 -1.861587 0 0 0
389 0 8 -1.05 6.404343000000001 6.6026050000000005 -1.8984230000000082 0 0 0
388 0 8 -1.05 4.358013 4.556274999999999 -1.8984230000000082 0 0 0
1938 1 7 1.575 5.381178 1.3394399999999997 -2.9215870000000024 0 1 0
1940 0 8 -1.05 6.478013000000001 2.4362749999999984 -1.8247519999999966 0 1 0
1951 0 8 -1.05 6.478013000000001 4.4826049999999995 0.22157800000000805 0 1 0
383 1 7 1.575 9.621178 5.57944 -2.9215870000000024 0 0 0
385 0 8 -1.05 10.718013 6.676275 -1.8247519999999966 0 0 0
1935 1 7 1.575 11.741178 3.459439999999997 -0.8015869999999978 0 1 0
1933 2 7 1.575 10.681178 0.27943999999999747 -1.861587 0 1 0
1930 2 7 1.575 8.561177999999998 2.3994399999999985 -1.861587 0 1 0
1931 0 8 -1.05 8.598012999999998 0.3162749999999974 -1.8984230000000082 0 1 0
1941 0 8 -1.05 8.524343 4.4826049999999995 -1.8247519999999966 0 1 0
1932 0 8 -1.05 10.644341999999998 2.3626039999999975 -1.8984230000000082 0 1 0
1929 0 8 -1.05 8.524343 2.4362749999999984 0.22157800000000805 0 1 0
1934 0 8 -1.05 10.718013 0.24260500000000107 0.22157800000000805 0 1 0
115 1 7 1.575 3.2611779999999992 11.93944 -0.8015869999999978 0 0 0
113 2 7 1.575 2.201177999999998 8.759439999999998 -1.861587 0 0 0
110 2 7 1.575 0.08117799999999775 10.879439999999999 -1.861587 0 0 0
116 0 8 -1.05 4.284343 8.722605 -1.8247519999999966 0 0 0
111 0 8 -1.05 0.1180129999999977 8.796274999999998 -1.8984230000000082 0 0 0
112 0 8 -1.05 2.1643419999999987 10.842603999999998 -1.8984230000000082 0 0 0
109 0 8 -1.05 0.04434299999999958 10.916274999999999 0.22157800000000805 0 0 0
114 0 8 -1.05 2.238012999999998 8.722605 0.22157800000000805 0 0 0
378 1 7 1.575 5.381178 9.81944 -2.9215870000000024 0 0 0
380 0 8 -1.05 6.478013000000001 10.916274999999999 -1.8247519999999966 0 0 0
375 1 7 1.575 11.741178 11.93944 -0.8015869999999978 0 0 0
373 2 6 1.05 10.681178 8.759439999999998 -1.861587 0 0 0
370 2 6 1.05 8.561177999999998 10.879439999999999 -1.861587 0 0 0
371 0 8 -1.05 8.598012999999998 8.796274999999998 -1.8984230000000082 0 0 0
372 0 8 -1.05 10.644341999999998 10.842603999999998 -1.8984230000000082 0 0 0
369 0 8 -1.05 8.524343 10.916274999999999 0.22157800000000805 0 0 0
374 0 8 -1.05 10.718013 8.722605 0.22157800000000805 0 0 0
144 0 8 -1.05 0.1180129999999977 4.556274999999999 2.3415779999999913 0 0 0
145 0 8 -1.05 0.1180129999999977 6.6026050000000005 0.29524799999999374 0 0 0
147 0 8 -1.05 2.1643419999999987 6.6026050000000005 2.3415779999999913 0 0 0
146 0 8 -1.05 2.1643419999999987 4.556274999999999 0.29524799999999374 0 0 0
124 2 6 1.05 2.201177999999998 6.6394400000000005 0.25841300000000444 0 0 0
148 2 7 1.575 2.201177999999998 4.5194399999999995 2.3784129999999877 0 0 0
143 2 7 1.575 0.08117799999999775 6.6394400000000005 2.3784129999999877 0 0 0
149 1 7 1.575 3.2611779999999992 7.69944 3.43841299999999 0 0 0
122 2 6 1.05 0.08117799999999775 4.5194399999999995 0.25841300000000444 0 0 0
1710 0 8 -1.05 4.284343 4.4826049999999995 2.415247999999991 0 1 0
1693 0 8 -1.05 0.04434299999999958 0.24260500000000107 2.415247999999991 0 1 0
1695 0 8 -1.05 2.238012999999998 2.4362749999999984 2.415247999999991 0 1 0
1694 1 7 1.575 1.1411779999999991 1.3394399999999997 1.3184129999999925 0 1 0
412 0 8 -1.05 6.478013000000001 6.676275 2.415247999999991 0 0 0
411 1 7 1.575 5.381178 5.57944 1.3184129999999925 0 0 0
1959 0 8 -1.05 6.404343000000001 0.3162749999999974 0.29524799999999374 0 1 0
1960 0 8 -1.05 6.404343000000001 2.3626039999999975 2.3415779999999913 0 1 0
1958 0 8 -1.05 4.358013 2.3626039999999975 0.29524799999999374 0 1 0
1957 0 8 -1.05 4.358013 0.3162749999999974 2.3415779999999913 0 1 0
1939 2 6 1.05 6.441178000000001 2.3994399999999985 0.25841300000000444 0 1 0
1937 2 7 1.575 4.321178 0.27943999999999747 0.25841300000000444 0 1 0
1956 2 6 1.05 4.321178 2.3994399999999985 2.3784129999999877 0 1 0
1961 2 7 1.575 6.441178000000001 0.27943999999999747 2.3784129999999877 0 1 0
1962 1 7 1.575 7.501178 3.459439999999997 3.43841299999999 0 1 0
404 0 8 -1.05 8.598012999999998 4.556274999999999 2.3415779999999913 0 0 0
405 0 8 -1.05 8.598012999999998 6.6026050000000005 0.29524799999999374 0 0 0
407 0 8 -1.05 10.644341999999998 6.6026050000000005 2.3415779999999913 0 0 0
406 0 8 -1.05 10.644341999999998 4.556274999999999 0.29524799999999374 0 0 0
384 2 7 1.575 10.681178 6.6394400000000005 0.25841300000000444 0 0 0
408 2 7 1.575 10.681178 4.5194399999999995 2.3784129999999877 0 0 0
403 2 6 1.05 8.561177999999998 6.6394400000000005 2.3784129999999877 0 0 0
409 1 7 1.575 11.741178 7.69944 3.43841299999999 0 0 0
382 2 6 1.05 8.561177999999998 4.5194399999999995 0.25841300000000444 0 0 0
1953 0 8 -1.05 8.524343 0.24260500000000107 2.415247999999991 0 1 0
1955 0 8 -1.05 10.718013 2.4362749999999984 2.415247999999991 0 1 0
1954 1 7 1.575 9.621178 1.3394399999999997 1.3184129999999925 0 1 0
133 0 8 -1.05 0.04434299999999958 8.722605 2.415247999999991 0 0 0
135 0 8 -1.05 2.238012999999998 10.916274999999999 2.415247999999991 0 0 0
134 1 7 1.575 1.1411779999999991 9.81944 1.3184129999999925 0 0 0
399 0 8 -1.05 6.404343000000001 8.796274999999998 0.29524799999999374 0 0 0
400 0 8 -1.05 6.404343000000001 10.842603999999998 2.3415779999999913 0 0 0
398 0 8 -1.05 4.358013 10.842603999999998 0.29524799999999374 0 0 0
397 0 8 -1.05 4.358013 8.796274999999998 2.3415779999999913 0 0 0
379 2 7 1.575 6.441178000000001 10.879439999999999 0.25841300000000444 0 0 0
377 2 6 1.05 4.321178 8.759439999999998 0.25841300000000444 0 0 0
396 2 6 1.05 4.321178 10.879439999999999 2.3784129999999877 0 0 0
401 2 7 1.575 6.441178000000001 8.759439999999998 2.3784129999999877 0 0 0
402 1 7 1.575 7.501178 11.93944 3.43841299999999 0 0 0
393 0 8 -1.05 8.524343 8.722605 2.415247999999991 0 0 0
395 0 8 -1.05 10.718013 10.916274999999999 2.415247999999991 0 0 0
394 1 7 1.575 9.621178 9.81944 1.3184129999999925 0 0 0
171 0 8 -1.05 2.238012999999998 6.676275 6.655248000000007 0 0 0
168 0 8 -1.05 0.04434299999999958 6.676275 4.461577999999996 0 0 0
169 1 7 1.575 1.1411779999999991 5.57944 5.558413000000002 0 0 0
1718 0 8 -1.05 2.1643419999999987 2.3626039999999975 6.581576999999989 0 1 0
1723 0 8 -1.05 4.284343 2.4362749999999984 4.461577999999996 0 1 0
1727 0 8 -1.05 0.04434299999999958 4.4826049999999995 6.655248000000007 0 1 0
1717 0 8 -1.05 2.1643419999999987 0.3162749999999974 4.535248000000003 0 1 0
1730 0 8 -1.05 2.238012999999998 4.4826049999999995 4.461577999999996 0 1 0
1715 0 8 -1.05 0.1180129999999977 0.3162749999999974 6.581576999999989 0 1 0
1722 0 8 -1.05 4.284343 0.24260500000000107 6.655248000000007 0 1 0
1716 0 8 -1.05 0.1180129999999977 2.3626039999999975 4.535248000000003 0 1 0
1713 2 7 1.575 0.08117799999999775 0.27943999999999747 4.498412999999999 0 1 0
1714 2 7 1.575 0.08117799999999775 2.3994399999999985 6.618413000000004 0 1 0
1720 2 6 1.05 2.201177999999998 2.3994399999999985 4.498412999999999 0 1 0
1719 2 6 1.05 2.201177999999998 0.27943999999999747 6.618413000000004 0 1 0
1721 1 7 1.575 3.2611779999999992 3.459439999999997 7.678413000000006 0 1 0
435 0 8 -1.05 4.358013 6.6026050000000005 4.535248000000003 0 0 0
434 0 8 -1.05 4.358013 4.556274999999999 6.581576999999989 0 0 0
436 0 8 -1.05 6.404343000000001 4.556274999999999 4.535248000000003 0 0 0
437 0 8 -1.05 6.404343000000001 6.6026050000000005 6.581576999999989 0 0 0
432 2 7 1.575 4.321178 4.5194399999999995 4.498412999999999 0 0 0
438 2 7 1.575 6.441178000000001 4.5194399999999995 6.618413000000004 0 0 0
433 2 6 1.05 4.321178 6.6394400000000005 6.618413000000004 0 0 0
439 2 6 1.05 6.441178000000001 6.6394400000000005 4.498412999999999 0 0 0
440 1 7 1.575 7.501178 7.69944 7.678413000000006 0 0 0
1985 0 8 -1.05 6.478013000000001 0.24260500000000107 4.461577999999996 0 1 0
1986 0 8 -1.05 6.478013000000001 2.4362749999999984 6.655248000000007 0 1 0
1984 1 7 1.575 5.381178 1.3394399999999997 5.558413000000002 0 1 0
431 0 8 -1.05 10.718013 6.676275 6.655248000000007 0 0 0
428 0 8 -1.05 8.524343 6.676275 4.461577999999996 0 0 0
429 1 7 1.575 9.621178 5.57944 5.558413000000002 0 0 0
1978 0 8 -1.05 10.644341999999998 2.3626039999999975 6.581576999999989 0 1 0
1987 0 8 -1.05 8.524343 4.4826049999999995 6.655248000000007 0 1 0
1977 0 8 -1.05 10.644341999999998 0.3162749999999974 4.535248000000003 0 1 0
1990 0 8 -1.05 10.718013 4.4826049999999995 4.461577999999996 0 1 0
1975 0 8 -1.05 8.598012999999998 0.3162749999999974 6.581576999999989 0 1 0
1976 0 8 -1.05 8.598012999999998 2.3626039999999975 4.535248000000003 0 1 0
1973 2 6 1.05 8.561177999999998 0.27943999999999747 4.498412999999999 0 1 0
1974 2 6 1.05 8.561177999999998 2.3994399999999985 6.618413000000004 0 1 0
1980 2 7 1.575 10.681178 2.3994399999999985 4.498412999999999 0 1 0
1979 2 7 1.575 10.681178 0.27943999999999747 6.618413000000004 0 1 0
1981 1 7 1.575 11.741178 3.459439999999997 7.678413000000006 0 1 0
158 0 8 -1.05 2.1643419999999987 10.842603999999998 6.581576999999989 0 0 0
163 0 8 -1.05 4.284343 10.916274999999999 4.461577999999996 0 0 0
157 0 8 -1.05 2.1643419999999987 8.796274999999998 4.535248000000003 0 0 0
155 0 8 -1.05 0.1180129999999977 8.796274999999998 6.581576999999989 0 0 0
162 0 8 -1.05 4.284343 8.722605 6.655248000000007 0 0 0
156 0 8 -1.05 0.1180129999999977 10.842603999999998 4.535248000000003 0 0 0
153 2 6 1.05 0.08117799999999775 8.759439999999998 4.498412999999999 0 0 0
154 2 7 1.575 0.08117799999999775 10.879439999999999 6.618413000000004 0 0 0
160 2 7 1.575 2.201177999999998 10.879439999999999 4.498412999999999 0 0 0
159 2 6 1.05 2.201177999999998 8.759439999999998 6.618413000000004 0 0 0
161 1 7 1.575 3.2611779999999992 11.93944 7.678413000000006 0 0 0
425 0 8 -1.05 6.478013000000001 8.722605 4.461577999999996 0 0 0
426 0 8 -1.05 6.478013000000001 10.916274999999999 6.655248000000007 0 0 0
424 1 7 1.575 5.381178 9.81944 5.558413000000002 0 0 0
418 0 8 -1.05 10.644341999999998 10.842603999999998 6.581576999999989 0 0 0
417 0 8 -1.05 10.644341999999998 8.796274999999998 4.535248000000003 0 0 0
415 0 8 -1.05 8.598012999999998 8.796274999999998 6.581576999999989 0 0 0
416 0 8 -1.05 8.598012999999998 10.842603999999998 4.535248000000003 0 0 0
413 2 7 1.575 8.561177999999998 8.759439999999998 4.498412999999999 0 0 0
414 2 7 1.575 8.561177999999998 10.879439999999999 6.618413000000004 0 0 0
420 2 6 1.05 10.681178 10.879439999999999 4.498412999999999 0 0 0
419 2 6 1.05 10.681178 8.759439999999998 6.618413000000004 0 0 0
421 1 7 1.575 11.741178 11.93944 7.678413000000006 0 0 0
197 0 8 -1.05 0.1180129999999977 4.556274999999999 10.821577999999995 0 0 0
198 0 8 -1.05 0.1180129999999977 6.6026050000000005 8.775248000000012 0 0 0