LAMMPS data file via write_data, version 29 Sep 2021, timestep = 578204

1332 atoms
10 atom types
180 bonds
6 bond types
324 angles
6 angle types
0 dihedrals
2 dihedral types
36 impropers
2 improper types

0 25.44 xlo xhi
0 25.44 ylo yhi
35.929417 100.267417 zlo zhi

Masses

1 12.011
2 1.008
3 15.9994
4 15.9994
5 1.008
6 55.845
7 55.845
8 15.9994
9 15.9994
10 1.008

Pair Coeffs # lj/cut/coul/long

1 0.0988 3.31521
2 0.0161 2.4473
3 0.1463 3.04812
4 0.093 3.24287
5 0.0047 0.537925
6 9.0298e-07 4.9062
7 9.0298e-07 4.9062
8 0.1554 3.16554
9 0.1554 3.16554
10 0 0

Bond Coeffs # harmonic

1 361.8 1.105
2 652.57 1.218
3 383.13 1.351
4 563.51 0.973
5 554.135 1
6 0 2.08

Angle Coeffs # harmonic

1 51.617 106.55
2 65.93 123.65
3 65.262 109.49
4 115.745 122.1
5 118.817 130.25
6 30 109.47

Dihedral Coeffs # fourier

1 1 2.3 2 180
2 2 2.3 2 180 1.9 1 0

Improper Coeffs # cvff

1 10.5 -1 2
2 10.5 -1 2

Atoms # full

22 0 1 0.731 3.2892481461299288 7.752475171399079 57.13505023452643 0 0 0
21 0 2 -0.123 3.2500855232533747 7.785476261529236 56.03961073933729 0 0 0
1048 0 1 0.731 7.547826926003852 3.5003201861137265 57.1216983892659 0 1 0
1047 0 2 -0.123 7.568276619725704 3.4760015541017766 56.02487666066481 0 1 0
170 0 1 0.731 11.74341922209026 7.775566723807819 57.12940821689634 0 0 0
169 0 2 -0.123 11.738629426473347 7.749048241906769 56.03279794683792 0 0 0
160 0 1 0.731 7.564876399037887 11.952023375063527 57.135358183866934 0 0 0
159 0 2 -0.123 7.525028401584514 11.982284105252834 56.03927165526775 0 0 0
461 0 10 0.425 0.5096186760821866 10.455182989827241 59.092948955015196 0 0 0
19 2 7 1.575 0.08117799999999864 4.51944 59.618416999999994 0 0 0
2 0 8 -1.05 0.11801299999999859 6.602605 59.581582000000004 0 0 0
23 0 8 -1.05 2.1643429999999997 4.556275 59.581582000000004 0 0 0
20 0 3 -0.804 2.548815986139798 7.004222919937812 57.74858952730884 0 0 0
789 1 7 1.575 11.741178000000001 11.939440000000001 60.678416999999996 0 0 0
154 0 3 -0.804 12.488332927265095 8.538686652800445 57.72152019603402 0 0 0
156 0 9 -0.975 4.23102874419128 6.746670327354451 59.79222000540023 0 0 0
164 0 9 -0.975 6.564796723618217 4.416776030245756 59.849633084731956 0 0 0
152 2 6 1.05 2.2011779999999996 6.639439999999998 59.618416999999994 0 0 0
163 2 7 1.575 6.441177999999999 2.3994399999999994 59.618416999999994 0 0 0
176 1 7 1.575 7.5011779999999995 7.69944 60.678416999999996 0 0 0
197 1 7 1.575 3.261178 3.45944 60.678416999999996 0 0 0
155 0 10 0.425 4.7270550653799726 6.216391549081502 59.06675726728583 0 0 0
165 0 10 0.425 8.967830739542848 2.0026652818333632 59.052647032068755 0 0 0
161 0 10 0.425 6.025048385584163 4.929211676007079 59.13071809640655 0 0 0
1041 0 9 -0.975 2.244464126525791 0.13535720953399896 59.78854091655854 0 1 0
1046 2 7 1.575 4.321178000000001 0.27943999999999747 59.618416999999994 0 1 0
1037 0 8 -1.05 6.404343 0.3162749999999974 59.581582000000004 0 1 0
1060 0 8 -1.05 4.358013000000001 2.3626049999999985 59.581582000000004 0 1 0
1045 0 3 -0.804 6.7949060061810975 2.766626636622901 57.734791622858765 0 1 0
1039 0 10 0.425 1.7792611656587265 0.6849668028947474 59.06314231346351 0 1 0
166 0 9 -0.975 8.47115190065079 2.5052917247371043 59.800820970533664 0 0 0
167 2 7 1.575 8.561177999999998 4.51944 59.618416999999994 0 0 0
150 0 8 -1.05 8.598012999999998 6.602605 59.581582000000004 0 0 0
171 0 8 -1.05 10.644343 4.556275 59.581582000000004 0 0 0
168 0 3 -0.804 10.99608014179861 7.048100620955028 57.762083932299554 0 0 0
1050 0 3 -0.804 8.291790061784434 4.253646204098502 57.72673596658349 0 1 0
300 2 6 1.05 10.681178 6.639439999999998 59.618416999999994 0 0 0
345 1 7 1.575 11.741178000000001 3.45944 60.678416999999996 0 0 0
299 0 10 0.425 10.261842223034085 9.17176739201267 59.05483859708384 0 0 0
1189 0 9 -0.975 10.775611646871464 0.15778204171773771 59.868881371267456 0 1 0
1187 0 10 0.425 10.258219835141213 0.6796258956829058 59.135502288095424 0 1 0
6 0 3 -0.804 4.072278345573687 8.471369834736803 57.73351741900246 0 0 0
301 0 9 -0.975 10.778743312852567 8.693268667283089 59.80708295842163 0 0 0
153 0 9 -0.975 2.308399939052757 8.671936255119626 59.80250377298451 0 0 0
158 2 7 1.575 4.321178000000001 8.759439999999998 59.618416999999994 0 0 0
149 0 8 -1.05 6.404343 8.796274999999998 59.581582000000004 0 0 0
172 0 8 -1.05 4.358013000000001 10.842604999999999 59.581582000000004 0 0 0
157 0 3 -0.804 6.850106738581065 11.184684537389188 57.75425688170713 0 0 0
151 0 10 0.425 1.7657391239294171 9.182702214048678 59.090278512673045 0 0 0
607 2 7 1.575 6.441177999999999 10.879439999999999 59.618416999999994 0 0 0
641 1 7 1.575 3.261178 11.939440000000001 60.678416999999996 0 0 0
609 0 10 0.425 8.969969782332265 10.46327860433075 59.13449273576289 0 0 0
610 0 9 -0.975 8.468922216487094 11.000559166026619 59.86750730666136 0 0 0
17 0 10 0.425 0.502984513727434 1.9893255995474979 59.124919996137315 0 0 0
162 0 3 -0.804 8.315411563911939 12.698432146748658 57.74068713809115 0 0 0
462 0 9 -0.975 0.09892005556378322 11.005358596490797 59.858228229794406 0 0 0
304 0 9 -0.975 12.701485475427504 6.761155787394196 59.79028082163313 0 0 0
29 0 8 -1.05 0.04434199999999855 6.676274999999998 63.89525199999999 0 0 0
42 0 8 -1.05 0.04434199999999855 4.482605 61.701581999999995 0 0 0
43 2 6 1.05 0.08117799999999864 2.3994399999999994 61.73841699999999 0 0 0
45 1 7 1.575 1.1411779999999991 5.57944 62.798417 0 0 0
920 0 8 -1.05 2.1643429999999997 0.3162749999999974 63.82158199999999 0 1 0
934 0 8 -1.05 2.1643429999999997 2.3626049999999985 61.775251999999995 0 1 0
932 0 8 -1.05 0.11801299999999859 2.3626049999999985 63.82158199999999 0 1 0
919 0 8 -1.05 0.11801299999999859 0.3162749999999974 61.775251999999995 0 1 0
918 2 7 1.575 0.08117799999999864 0.27943999999999747 63.858416999999996 0 1 0
200 0 8 -1.05 4.358013000000001 4.556275 61.775251999999995 0 0 0
196 0 8 -1.05 2.2380129999999996 4.482605 63.89525199999999 0 0 0
189 0 8 -1.05 6.478012999999999 2.4362749999999993 61.701581999999995 0 0 0
185 0 8 -1.05 4.358013000000001 6.602605 63.82158199999999 0 0 0
198 0 8 -1.05 4.284343000000001 2.4362749999999993 63.89525199999999 0 0 0
173 0 8 -1.05 6.404343 6.602605 61.775251999999995 0 0 0
182 0 8 -1.05 2.2380129999999996 6.676274999999998 61.701581999999995 0 0 0
187 0 8 -1.05 6.404343 4.556275 63.82158199999999 0 0 0
174 2 6 1.05 6.441177999999999 6.639439999999998 63.858416999999996 0 0 0
195 2 6 1.05 2.2011779999999996 2.3994399999999994 63.858416999999996 0 0 0
188 2 7 1.575 6.441177999999999 4.51944 61.73841699999999 0 0 0
184 2 7 1.575 4.321178000000001 6.639439999999998 61.73841699999999 0 0 0
199 2 7 1.575 4.321178000000001 4.51944 63.858416999999996 0 0 0
1071 0 8 -1.05 4.284343000000001 0.2426039999999965 61.701581999999995 0 1 0
1063 0 8 -1.05 6.478012999999999 0.2426039999999965 63.89525199999999 0 1 0
1069 2 7 1.575 2.2011779999999996 0.27943999999999747 61.73841699999999 0 1 0
1074 1 7 1.575 5.381178 1.3394399999999997 62.798417 0 1 0
177 0 8 -1.05 8.524341999999999 6.676274999999998 63.89525199999999 0 0 0
190 0 8 -1.05 8.524341999999999 4.482605 61.701581999999995 0 0 0
191 2 7 1.575 8.561177999999998 2.3994399999999994 61.73841699999999 0 0 0
193 1 7 1.575 9.621178 5.57944 62.798417 0 0 0
1068 0 8 -1.05 10.644343 0.3162749999999974 63.82158199999999 0 1 0
1082 0 8 -1.05 10.644343 2.3626049999999985 61.775251999999995 0 1 0
1080 0 8 -1.05 8.598012999999998 2.3626049999999985 63.82158199999999 0 1 0
1067 0 8 -1.05 8.598012999999998 0.3162749999999974 61.775251999999995 0 1 0
1066 2 6 1.05 8.561177999999998 0.27943999999999747 63.858416999999996 0 1 0
344 0 8 -1.05 10.718013 4.482605 63.89525199999999 0 0 0
330 0 8 -1.05 10.718013 6.676274999999998 61.701581999999995 0 0 0
343 2 7 1.575 10.681178 2.3994399999999994 63.858416999999996 0 0 0
1217 2 6 1.05 10.681178 0.27943999999999747 61.73841699999999 0 1 0
32 0 8 -1.05 2.1643429999999997 8.796274999999998 63.82158199999999 0 0 0
46 0 8 -1.05 2.1643429999999997 10.842604999999999 61.775251999999995 0 0 0
44 0 8 -1.05 0.11801299999999859 10.842604999999999 63.82158199999999 0 0 0
31 0 8 -1.05 0.11801299999999859 8.796274999999998 61.775251999999995 0 0 0
30 2 7 1.575 0.08117799999999864 8.759439999999998 63.858416999999996 0 0 0
487 2 7 1.575 0.08117799999999864 10.879439999999999 61.73841699999999 0 0 0
183 0 8 -1.05 4.284343000000001 8.722603999999997 61.701581999999995 0 0 0
175 0 8 -1.05 6.478012999999999 8.722603999999997 63.89525199999999 0 0 0
181 2 7 1.575 2.2011779999999996 8.759439999999998 61.73841699999999 0 0 0
186 1 7 1.575 5.381178 9.81944 62.798417 0 0 0
633 0 8 -1.05 6.478012999999999 10.916274999999999 61.701581999999995 0 0 0
642 0 8 -1.05 4.284343000000001 10.916274999999999 63.89525199999999 0 0 0
639 2 7 1.575 2.2011779999999996 10.879439999999999 63.858416999999996 0 0 0
180 0 8 -1.05 10.644343 8.796274999999998 63.82158199999999 0 0 0
194 0 8 -1.05 10.644343 10.842604999999999 61.775251999999995 0 0 0
192 0 8 -1.05 8.598012999999998 10.842604999999999 63.82158199999999 0 0 0
179 0 8 -1.05 8.598012999999998 8.796274999999998 61.775251999999995 0 0 0
178 2 7 1.575 8.561177999999998 8.759439999999998 63.858416999999996 0 0 0
635 2 6 1.05 8.561177999999998 10.879439999999999 61.73841699999999 0 0 0
329 2 7 1.575 10.681178 8.759439999999998 61.73841699999999 0 0 0
787 2 6 1.05 10.681178 10.879439999999999 63.858416999999996 0 0 0
91 0 8 -1.05 0.04434199999999855 4.482605 70.18158199999998 0 0 0
90 0 8 -1.05 0.04434199999999855 2.4362749999999993 68.135252 0 0 0
68 2 7 1.575 0.08117799999999864 4.51944 68.09841699999998 0 0 0
92 2 6 1.05 0.08117799999999864 2.3994399999999994 70.21841699999999 0 0 0
93 1 7 1.575 1.1411779999999991 5.57944 71.27841699999999 0 0 0
58 0 8 -1.05 0.11801299999999859 6.602605 68.06158199999999 0 0 0
69 0 8 -1.05 0.11801299999999859 4.556275 66.01525199999999 0 0 0
70 0 8 -1.05 2.1643429999999997 4.556275 68.06158199999999 0 0 0
60 0 8 -1.05 2.1643429999999997 6.602605 66.01525199999999 0 0 0
57 2 7 1.575 0.08117799999999864 6.639439999999998 65.978417 0 0 0
982 0 8 -1.05 2.1643429999999997 2.3626049999999985 70.25525199999998 0 1 0
967 0 8 -1.05 0.11801299999999859 0.3162749999999974 70.25525199999998 0 1 0
944 0 8 -1.05 0.04434199999999855 0.2426039999999965 65.94158099999999 0 1 0
947 1 7 1.575 1.1411779999999991 1.3394399999999997 67.038417 0 1 0
244 0 8 -1.05 4.358013000000001 4.556275 70.25525199999998 0 0 0
231 0 8 -1.05 4.284343000000001 6.676274999999998 68.135252 0 0 0
236 0 8 -1.05 6.478012999999999 2.4362749999999993 70.18158199999998 0 0 0
237 0 8 -1.05 6.478012999999999 4.482605 68.135252 0 0 0
225 0 8 -1.05 6.404343 6.602605 70.25525199999998 0 0 0
229 0 8 -1.05 2.2380129999999996 6.676274999999998 70.18158199999998 0 0 0
235 2 6 1.05 6.441177999999999 4.51944 70.21841699999999 0 0 0
209 2 7 1.575 2.2011779999999996 6.639439999999998 68.09841699999998 0 0 0
233 2 6 1.05 4.321178000000001 6.639439999999998 70.21841699999999 0 0 0
214 2 7 1.575 6.441177999999999 2.3994399999999994 68.09841699999998 0 0 0
226 1 7 1.575 7.5011779999999995 7.69944 69.158417 0 0 0
243 1 7 1.575 3.261178 3.45944 69.158417 0 0 0
220 0 8 -1.05 2.2380129999999996 2.4362749999999993 65.94158099999999 0 0 0
203 0 8 -1.05 6.478012999999999 6.676274999999998 65.94158099999999 0 0 0
221 0 8 -1.05 4.284343000000001 4.482605 65.94158099999999 0 0 0
222 2 6 1.05 4.321178000000001 2.3994399999999994 65.978417 0 0 0
219 2 6 1.05 2.2011779999999996 4.51944 65.978417 0 0 0
224 1 7 1.575 5.381178 5.57944 67.038417 0 0 0
210 1 7 1.575 3.261178 7.69944 64.91841699999998 0 0 0
215 1 7 1.575 7.5011779999999995 3.45944 64.91841699999998 0 0 0
1120 0 8 -1.05 4.284343000000001 0.2426039999999965 70.18158199999998 0 1 0
1118 0 8 -1.05 2.2380129999999996 0.2426039999999965 68.135252 0 1 0
1099 2 7 1.575 4.321178000000001 0.27943999999999747 68.09841699999998 0 1 0
1116 2 7 1.575 2.2011779999999996 0.27943999999999747 70.21841699999999 0 1 0
1122 1 7 1.575 5.381178 1.3394399999999997 71.27841699999999 0 1 0
1101 0 8 -1.05 6.404343 2.3626049999999985 66.01525199999999 0 1 0
1089 0 8 -1.05 6.404343 0.3162749999999974 68.06158199999999 0 1 0
1100 0 8 -1.05 4.358013000000001 0.3162749999999974 66.01525199999999 0 1 0
1111 0 8 -1.05 4.358013000000001 2.3626049999999985 68.06158199999999 0 1 0
1090 2 7 1.575 6.441177999999999 0.27943999999999747 65.978417 0 1 0
239 0 8 -1.05 8.524341999999999 4.482605 70.18158199999998 0 0 0
238 0 8 -1.05 8.524341999999999 2.4362749999999993 68.135252 0 0 0
216 2 7 1.575 8.561177999999998 4.51944 68.09841699999998 0 0 0
240 2 7 1.575 8.561177999999998 2.3994399999999994 70.21841699999999 0 0 0
241 1 7 1.575 9.621178 5.57944 71.27841699999999 0 0 0
206 0 8 -1.05 8.598012999999998 6.602605 68.06158199999999 0 0 0
217 0 8 -1.05 8.598012999999998 4.556275 66.01525199999999 0 0 0
218 0 8 -1.05 10.644343 4.556275 68.06158199999999 0 0 0
208 0 8 -1.05 10.644343 6.602605 66.01525199999999 0 0 0
205 2 7 1.575 8.561177999999998 6.639439999999998 65.978417 0 0 0
1130 0 8 -1.05 10.644343 2.3626049999999985 70.25525199999998 0 1 0
1115 0 8 -1.05 8.598012999999998 0.3162749999999974 70.25525199999998 0 1 0
1092 0 8 -1.05 8.524341999999999 0.2426039999999965 65.94158099999999 0 1 0
1095 1 7 1.575 9.621178 1.3394399999999997 67.038417 0 1 0
377 0 8 -1.05 10.718013 6.676274999999998 70.18158199999998 0 0 0
357 2 6 1.05 10.681178 6.639439999999998 68.09841699999998 0 0 0
391 1 7 1.575 11.741178000000001 3.45944 69.158417 0 0 0
368 0 8 -1.05 10.718013 2.4362749999999993 65.94158099999999 0 0 0
367 2 7 1.575 10.681178 4.51944 65.978417 0 0 0
358 1 7 1.575 11.741178000000001 7.69944 64.91841699999998 0 0 0
1266 0 8 -1.05 10.718013 0.2426039999999965 68.135252 0 1 0
1264 2 7 1.575 10.681178 0.27943999999999747 70.21841699999999 0 1 0
94 0 8 -1.05 2.1643429999999997 10.842604999999999 70.25525199999998 0 0 0
79 0 8 -1.05 0.11801299999999859 8.796274999999998 70.25525199999998 0 0 0
56 0 8 -1.05 0.04434199999999855 8.722603999999997 65.94158099999999 0 0 0
59 1 7 1.575 1.1411779999999991 9.81944 67.038417 0 0 0
534 0 8 -1.05 0.04434199999999855 10.916274999999999 68.135252 0 0 0
536 2 7 1.575 0.08117799999999864 10.879439999999999 70.21841699999999 0 0 0
232 0 8 -1.05 4.284343000000001 8.722603999999997 70.18158199999998 0 0 0
230 0 8 -1.05 2.2380129999999996 8.722603999999997 68.135252 0 0 0
211 2 6 1.05 4.321178000000001 8.759439999999998 68.09841699999998 0 0 0
228 2 7 1.575 2.2011779999999996 8.759439999999998 70.21841699999999 0 0 0
234 1 7 1.575 5.381178 9.81944 71.27841699999999 0 0 0
213 0 8 -1.05 6.404343 10.842604999999999 66.01525199999999 0 0 0
201 0 8 -1.05 6.404343 8.796274999999998 68.06158199999999 0 0 0
212 0 8 -1.05 4.358013000000001 8.796274999999998 66.01525199999999 0 0 0
223 0 8 -1.05 4.358013000000001 10.842604999999999 68.06158199999999 0 0 0
202 2 7 1.575 6.441177999999999 8.759439999999998 65.978417 0 0 0
680 0 8 -1.05 6.478012999999999 10.916274999999999 70.18158199999998 0 0 0
658 2 6 1.05 6.441177999999999 10.879439999999999 68.09841699999998 0 0 0
687 1 7 1.575 3.261178 11.939440000000001 69.158417 0 0 0
664 0 8 -1.05 2.2380129999999996 10.916274999999999 65.94158099999999 0 0 0
666 2 6 1.05 4.321178000000001 10.879439999999999 65.978417 0 0 0
659 1 7 1.575 7.5011779999999995 11.939440000000001 64.91841699999998 0 0 0
242 0 8 -1.05 10.644343 10.842604999999999 70.25525199999998 0 0 0
227 0 8 -1.05 8.598012999999998 8.796274999999998 70.25525199999998 0 0 0
204 0 8 -1.05 8.524341999999999 8.722603999999997 65.94158099999999 0 0 0
207 1 7 1.575 9.621178 9.81944 67.038417 0 0 0
682 0 8 -1.05 8.524341999999999 10.916274999999999 68.135252 0 0 0
684 2 7 1.575 8.561177999999998 10.879439999999999 70.21841699999999 0 0 0
378 0 8 -1.05 10.718013 8.722603999999997 68.135252 0 0 0
376 2 6 1.05 10.681178 8.759439999999998 70.21841699999999 0 0 0
835 1 7 1.575 11.741178000000001 11.939440000000001 69.158417 0 0 0
812 0 8 -1.05 10.718013 10.916274999999999 65.94158099999999 0 0 0
115 0 8 -1.05 0.11801299999999859 4.556275 74.49525199999998 0 0 0
101 0 8 -1.05 0.04434199999999855 6.676274999999998 72.37525199999999 0 0 0
106 0 8 -1.05 2.1643429999999997 6.602605 74.49525199999998 0 0 0
103 2 6 1.05 0.08117799999999864 6.639439999999998 74.458417 0 0 0
990 0 8 -1.05 0.04434199999999855 0.2426039999999965 74.421581 0 1 0
995 0 8 -1.05 2.1643429999999997 0.3162749999999974 72.30158199999998 0 1 0
1002 0 8 -1.05 0.11801299999999859 2.3626049999999985 72.30158199999998 0 1 0
992 2 6 1.05 0.08117799999999864 0.27943999999999747 72.33841699999998 0 1 0
267 0 8 -1.05 2.2380129999999996 4.482605 72.37525199999999 0 0 0
257 0 8 -1.05 4.358013000000001 6.602605 72.30158199999998 0 0 0
266 0 8 -1.05 2.2380129999999996 2.4362749999999993 74.421581 0 0 0
268 0 8 -1.05 4.284343000000001 2.4362749999999993 72.37525199999999 0 0 0
247 0 8 -1.05 6.478012999999999 6.676274999999998 74.421581 0 0 0
269 0 8 -1.05 4.284343000000001 4.482605 74.421581 0 0 0
260 0 8 -1.05 6.404343 4.556275 72.30158199999998 0 0 0
245 2 6 1.05 6.441177999999999 6.639439999999998 72.33841699999998 0 0 0
264 2 7 1.575 2.2011779999999996 2.3994399999999994 72.33841699999998 0 0 0
270 2 7 1.575 4.321178000000001 2.3994399999999994 74.458417 0 0 0
265 2 7 1.575 2.2011779999999996 4.51944 74.458417 0 0 0
271 2 7 1.575 4.321178000000001 4.51944 72.33841699999998 0 0 0
256 1 7 1.575 3.261178 7.69944 73.398417 0 0 0
261 1 7 1.575 7.5011779999999995 3.45944 73.398417 0 0 0
1147 0 8 -1.05 6.404343 2.3626049999999985 74.49525199999998 0 1 0
1146 0 8 -1.05 4.358013000000001 0.3162749999999974 74.49525199999998 0 1 0
1136 0 8 -1.05 6.478012999999999 0.2426039999999965 72.37525199999999 0 1 0
1134 2 7 1.575 6.441177999999999 0.27943999999999747 74.458417 0 1 0
263 0 8 -1.05 8.598012999999998 4.556275 74.49525199999998 0 0 0
249 0 8 -1.05 8.524341999999999 6.676274999999998 72.37525199999999 0 0 0
254 0 8 -1.05 10.644343 6.602605 74.49525199999998 0 0 0
251 2 6 1.05 8.561177999999998 6.639439999999998 74.458417 0 0 0
1138 0 8 -1.05 8.524341999999999 0.2426039999999965 74.421581 0 1 0
1143 0 8 -1.05 10.644343 0.3162749999999974 72.30158199999998 0 1 0
1150 0 8 -1.05 8.598012999999998 2.3626049999999985 72.30158199999998 0 1 0
1140 2 7 1.575 8.561177999999998 0.27943999999999747 72.33841699999998 0 1 0
415 0 8 -1.05 10.718013 4.482605 72.37525199999999 0 0 0
414 0 8 -1.05 10.718013 2.4362749999999993 74.421581 0 0 0
412 2 6 1.05 10.681178 2.3994399999999994 72.33841699999998 0 0 0
413 2 6 1.05 10.681178 4.51944 74.458417 0 0 0
404 1 7 1.575 11.741178000000001 7.69944 73.398417 0 0 0
102 0 8 -1.05 0.04434199999999855 8.722603999999997 74.421581 0 0 0
107 0 8 -1.05 2.1643429999999997 8.796274999999998 72.30158199999998 0 0 0
114 0 8 -1.05 0.11801299999999859 10.842604999999999 72.30158199999998 0 0 0
104 2 6 1.05 0.08117799999999864 8.759439999999998 72.33841699999998 0 0 0
259 0 8 -1.05 6.404343 10.842604999999999 74.49525199999998 0 0 0
258 0 8 -1.05 4.358013000000001 8.796274999999998 74.49525199999998 0 0 0
248 0 8 -1.05 6.478012999999999 8.722603999999997 72.37525199999999 0 0 0
246 2 7 1.575 6.441177999999999 8.759439999999998 74.458417 0 0 0
710 0 8 -1.05 2.2380129999999996 10.916274999999999 74.421581 0 0 0
712 0 8 -1.05 4.284343000000001 10.916274999999999 72.37525199999999 0 0 0
708 2 6 1.05 2.2011779999999996 10.879439999999999 72.33841699999998 0 0 0
714 2 7 1.575 4.321178000000001 10.879439999999999 74.458417 0 0 0
705 1 7 1.575 7.5011779999999995 11.939440000000001 73.398417 0 0 0
250 0 8 -1.05 8.524341999999999 8.722603999999997 74.421581 0 0 0
255 0 8 -1.05 10.644343 8.796274999999998 72.30158199999998 0 0 0
262 0 8 -1.05 8.598012999999998 10.842604999999999 72.30158199999998 0 0 0
252 2 7 1.575 8.561177999999998 8.759439999999998 72.33841699999998 0 0 0
858 0 8 -1.05 10.718013 10.916274999999999 74.421581 0 0 0
856 2 6 1.05 10.681178 10.879439999999999 72.33841699999998 0 0 0
143 2 7 1.575 0.08117799999999864 4.51944 76.578417 0 0 0
142 0 8 -1.05 0.04434199999999855 2.4362749999999993 76.615252 0 0 0
127 0 9 -0.975 0.20076594892197183 6.6003742979587425 76.34168275642291 0 0 0
146 0 9 -0.975 2.097879424882182 4.680069955114105 76.34846904370336 0 0 0
144 0 3 -0.804 1.952942499353608 6.467950715845464 78.47098778447905 0 0 0
139 0 3 -0.804 0.42982153041683596 5.01436093563787 78.44219827285224 0 0 0
147 0 10 0.425 2.600050493273114 4.096074095260032 77.04257351423365 0 0 0
280 0 2 -0.123 5.3795559046685 9.859546248977013 80.16376155642041 0 0 0
993 1 7 1.575 1.1411779999999991 1.3394399999999997 75.51841699999999 0 1 0
277 2 7 1.575 2.2011779999999996 6.639439999999998 76.578417 0 0 0
285 2 7 1.575 6.441177999999999 2.3994399999999994 76.578417 0 0 0
286 0 8 -1.05 6.478012999999999 4.482605 76.615252 0 0 0
281 0 8 -1.05 4.284343000000001 6.676274999999998 76.615252 0 0 0
272 1 7 1.575 5.381178 5.57944 75.51841699999999 0 0 0
274 0 10 0.425 6.84749366221653 8.339762489285219 77.0946248329598 0 0 0
1171 2 7 1.575 4.321178000000001 0.27943999999999747 76.578417 0 1 0
1166 0 8 -1.05 2.2380129999999996 0.2426039999999965 76.615252 0 1 0
1161 0 9 -0.975 6.341540795642729 0.4138539816505761 76.43689909718343 0 1 0
1184 0 9 -0.975 4.429150345289382 2.3481679537998783 76.41364534492683 0 1 0
1170 0 3 -0.804 6.097933821151522 2.1962698905956626 78.48696196373658 0 1 0
1164 0 3 -0.804 4.61700047156369 0.6707677069219822 78.49046821595702 0 1 0
1172 0 10 0.425 3.8726224469497414 2.8062834367665985 77.14381317308036 0 1 0
291 2 7 1.575 8.561177999999998 4.51944 76.578417 0 0 0
290 0 8 -1.05 8.524341999999999 2.4362749999999993 76.615252 0 0 0
275 0 9 -0.975 8.66814782195472 6.557985834750272 76.34411772440298 0 0 0
294 0 9 -0.975 10.568031027336692 4.657335816455586 76.35728495838453 0 0 0
292 0 3 -0.804 10.344438856811287 6.42214910684943 78.4691291473114 0 0 0
287 0 3 -0.804 8.855468441028197 4.919252409469472 78.47216841963932 0 0 0
295 0 10 0.425 11.074204398124394 4.105158731135634 77.07382960678717 0 0 0
293 0 10 0.425 8.147329428097061 7.034178082647069 77.09969514125643 0 0 0
1141 1 7 1.575 9.621178 1.3394399999999997 75.51841699999999 0 1 0
425 2 7 1.575 10.681178 6.639439999999998 76.578417 0 0 0
1314 0 8 -1.05 10.718013 0.2426039999999965 76.615252 0 1 0
105 1 7 1.575 1.1411779999999991 9.81944 75.51841699999999 0 0 0
586 0 8 -1.05 0.04434199999999855 10.916274999999999 76.615252 0 0 0
591 0 10 0.425 2.611948674237607 12.587426770785063 77.07692207886767 0 0 0
283 2 7 1.575 4.321178000000001 8.759439999999998 76.578417 0 0 0
278 0 8 -1.05 2.2380129999999996 8.722603999999997 76.615252 0 0 0
273 0 9 -0.975 6.3493339272018785 8.860612199670342 76.35079172582978 0 0 0
296 0 9 -0.975 4.43712015474035 10.778121176655139 76.38486672110685 0 0 0
282 0 3 -0.804 6.151111923279177 10.592477168872913 78.45758219609729 0 0 0
276 0 3 -0.804 4.625286895206849 9.138900919346213 78.44792338632328 0 0 0
284 0 10 0.425 3.914085983919044 11.280241075333208 77.12159229155549 0 0 0
729 2 7 1.575 6.441177999999999 10.879439999999999 76.578417 0 0 0
253 1 7 1.575 9.621178 9.81944 75.51841699999999 0 0 0
734 0 8 -1.05 8.524341999999999 10.916274999999999 76.615252 0 0 0
739 0 10 0.425 11.088399843140902 12.592008404302904 77.09502559911904 0 0 0
426 0 8 -1.05 10.718013 8.722603999999997 76.615252 0 0 0
140 0 1 0.731 1.212763458716186 5.7013449169573684 79.06632773028629 0 0 0
141 0 2 -0.123 1.2559117840941247 5.634936124332945 80.1605557212898 0 0 0
1167 0 1 0.731 5.374508907264292 1.4117355169492725 79.08512229745577 0 1 0
1168 0 2 -0.123 5.4155751742832905 1.3698012977519012 80.18354472381426 0 1 0
288 0 1 0.731 9.612839666574166 5.6536607062002044 79.07995838795874 0 0 0
289 0 2 -0.123 9.637535622098753 5.629456506385267 80.17731357459964 0 0 0
279 0 1 0.731 5.384733425728322 9.862884943152828 79.06647615734148 0 0 0
1320 0 10 0.425 12.392499984857789 2.8106390141917834 77.11079366043973 0 1 0
432 0 10 0.425 12.4064343288226 11.281696309262145 77.100258882805 0 0 0
466 0 1 0.731 3.315519334429947 16.2244141089208 57.1275216415525 0 0 0
465 0 2 -0.123 3.2733172231474033 16.256921230399772 56.03071995383711 0 0 0
614 0 1 0.731 11.744351942449047 16.133070090047802 57.135379422346915 0 0 0
613 0 2 -0.123 11.735902755780437 16.141510315918183 56.03787129458584 0 0 0
910 0 1 0.731 3.212645174643447 24.558484178820372 57.08313734666607 0 0 0
909 0 2 -0.123 3.104529033940488 24.59362037998057 55.9895604785011 0 0 0
604 0 1 0.731 7.550763455160822 20.374262154840732 57.1351991428417 0 0 0
603 0 2 -0.123 7.520210396582136 20.40523980285797 56.03863183015556 0 0 0
1058 0 1 0.731 11.667790064902478 24.628889830209022 57.13292246050092 0 0 0
1057 0 2 -0.123 11.70307227418384 24.653306153764866 56.03472465461522 0 0 0
748 0 9 -0.975 12.684309931089036 15.217645232867977 59.86081041959311 0 0 0
463 2 7 1.575 0.08117799999999864 12.99944 59.618416999999994 0 0 0
446 0 8 -1.05 0.11801299999999859 15.082605000000001 59.581582000000004 0 0 0
467 0 8 -1.05 2.1643429999999997 13.036275 59.581582000000004 0 0 0
464 0 3 -0.804 2.581674102747591 15.472440596965319 57.74304080863392 0 0 0
600 0 9 -0.975 4.243618239652247 15.216720012850239 59.79355553224257 0 0 0
608 0 9 -0.975 6.572470413331169 12.884058883321767 59.856423771955036 0 0 0
596 2 7 1.575 2.2011779999999996 15.119439999999997 59.618416999999994 0 0 0
620 1 7 1.575 7.5011779999999995 16.17944 60.678416999999996 0 0 0
599 0 10 0.425 4.7228060176778826 14.699206831978449 59.04878480448372 0 0 0
605 0 10 0.425 6.0300349868526695 13.40035579922832 59.13645095911366 0 0 0
598 0 3 -0.804 12.483025498230278 16.880175075492044 57.7513853021619 0 0 0
611 2 7 1.575 8.561177999999998 12.99944 59.618416999999994 0 0 0
594 0 8 -1.05 8.598012999999998 15.082605000000001 59.581582000000004 0 0 0
615 0 8 -1.05 10.644343 13.036275 59.581582000000004 0 0 0
612 0 3 -0.804 11.008024699857705 15.380965689660655 57.7499978633543 0 0 0
744 2 7 1.575 10.681178 15.119439999999997 59.618416999999994 0 0 0
894 0 3 -0.804 4.038274312179896 25.26224954120674 57.63133345287429 0 0 0
1233 1 7 1.575 11.741178000000001 20.41944 60.678416999999996 0 0 0
450 0 3 -0.804 4.096226136464534 16.946400292395477 57.72564707725226 0 0 0
1188 2 7 1.575 10.681178 23.599439999999998 59.618416999999994 0 0 0
907 2 7 1.575 0.08117799999999864 21.47944 59.618416999999994 0 0 0
890 0 8 -1.05 0.11801299999999859 23.562605 59.581582000000004 0 0 0
911 0 8 -1.05 2.1643429999999997 21.516275 59.581582000000004 0 0 0
908 0 3 -0.804 2.4934048579806887 23.80966283512501 57.72817136353492 0 0 0
597 0 9 -0.975 2.315284124960064 17.15251242094696 59.791880364361624 0 0 0
602 2 7 1.575 4.321178000000001 17.23944 59.618416999999994 0 0 0
593 0 8 -1.05 6.404343 17.276275 59.581582000000004 0 0 0
616 0 8 -1.05 4.358013000000001 19.322605 59.581582000000004 0 0 0
601 0 3 -0.804 6.828417904077347 19.60715871411812 57.74624971539269 0 0 0
595 0 10 0.425 1.7826645389198068 17.648720941108213 59.0630864697369 0 0 0
1044 0 9 -0.975 4.20082812610979 23.598495308222418 59.85332928561321 0 0 0
1052 0 9 -0.975 6.57435581163218 21.356137773294495 59.802337972905484 0 0 0
1040 2 7 1.575 2.2011779999999996 23.599439999999998 59.618416999999994 0 0 0
1051 2 7 1.575 6.441177999999999 19.35944 59.618416999999994 0 0 0
1064 1 7 1.575 7.5011779999999995 24.65944 60.678416999999996 0 0 0
1085 1 7 1.575 3.261178 20.41944 60.678416999999996 0 0 0
1043 0 10 0.425 4.741014060969876 23.180853647586297 59.08299332009315 0 0 0
1053 0 10 0.425 8.97602825789307 18.945587017125035 59.09155258842829 0 0 0
1049 0 10 0.425 6.036085539605864 21.884487959398005 59.09558082101533 0 0 0
606 0 3 -0.804 8.31111629294433 21.10318453514157 57.74810666158091 0 0 0
1054 0 9 -0.975 8.485719746768108 19.439242964388956 59.85584124797793 0 0 0
1055 2 7 1.575 8.561177999999998 21.47944 59.618416999999994 0 0 0
1038 0 8 -1.05 8.598012999999998 23.562605 59.581582000000004 0 0 0
1059 0 8 -1.05 10.644343 21.516275 59.581582000000004 0 0 0
1056 0 3 -0.804 10.923288928788528 23.860501681959427 57.71356287581342 0 0 0
745 0 9 -0.975 10.783201706142918 17.1196012334427 59.85471787784882 0 0 0
743 0 10 0.425 10.284645897047064 17.639766709255813 59.107247440340835 0 0 0
905 0 10 0.425 0.48099439969224883 18.94794359115258 59.13206324601446 0 0 0
1042 0 3 -0.804 12.381114974651288 25.369670920167056 57.78498013046312 0 0 0
1192 0 9 -0.975 12.671453274495361 23.714856391184707 59.860245014790564 0 0 0
473 0 8 -1.05 0.04434199999999855 15.156274999999997 63.89525199999999 0 0 0
486 0 8 -1.05 0.04434199999999855 12.962605 61.701581999999995 0 0 0
489 1 7 1.575 1.1411779999999991 14.05944 62.798417 0 0 0
644 0 8 -1.05 4.358013000000001 13.036275 61.775251999999995 0 0 0
640 0 8 -1.05 2.2380129999999996 12.962605 63.89525199999999 0 0 0
629 0 8 -1.05 4.358013000000001 15.082605000000001 63.82158199999999 0 0 0
617 0 8 -1.05 6.404343 15.082605000000001 61.775251999999995 0 0 0
626 0 8 -1.05 2.2380129999999996 15.156274999999997 61.701581999999995 0 0 0
631 0 8 -1.05 6.404343 13.036275 63.82158199999999 0 0 0
618 2 7 1.575 6.441177999999999 15.119439999999997 63.858416999999996 0 0 0
632 2 7 1.575 6.441177999999999 12.99944 61.73841699999999 0 0 0
628 2 7 1.575 4.321178000000001 15.119439999999997 61.73841699999999 0 0 0
643 2 7 1.575 4.321178000000001 12.99944 63.858416999999996 0 0 0
621 0 8 -1.05 8.524341999999999 15.156274999999997 63.89525199999999 0 0 0
634 0 8 -1.05 8.524341999999999 12.962605 61.701581999999995 0 0 0
637 1 7 1.575 9.621178 14.05944 62.798417 0 0 0
788 0 8 -1.05 10.718013 12.962605 63.89525199999999 0 0 0
774 0 8 -1.05 10.718013 15.156274999999997 61.701581999999995 0 0 0
476 0 8 -1.05 2.1643429999999997 17.276275 63.82158199999999 0 0 0
490 0 8 -1.05 2.1643429999999997 19.322605 61.775251999999995 0 0 0
488 0 8 -1.05 0.11801299999999859 19.322605 63.82158199999999 0 0 0
475 0 8 -1.05 0.11801299999999859 17.276275 61.775251999999995 0 0 0
474 2 7 1.575 0.08117799999999864 17.23944 63.858416999999996 0 0 0
917 0 8 -1.05 0.04434199999999855 23.636274999999998 63.89525199999999 0 0 0