LAMMPS data file via write_data, version 29 Sep 2021, timestep = 788469

1332 atoms
10 atom types
180 bonds
6 bond types
324 angles
6 angle types
0 dihedrals
2 dihedral types
36 impropers
2 improper types

0 25.44 xlo xhi
0 25.44 ylo yhi
35.929417 100.267417 zlo zhi

Masses

1 12.011
2 1.008
3 15.9994
4 15.9994
5 1.008
6 55.845
7 55.845
8 15.9994
9 15.9994
10 1.008

Pair Coeffs # lj/cut/coul/long

1 0.0988 3.31521
2 0.0161 2.4473
3 0.1463 3.04812
4 0.093 3.24287
5 0.0047 0.537925
6 9.0298e-07 4.9062
7 9.0298e-07 4.9062
8 0.1554 3.16554
9 0.1554 3.16554
10 0 0

Bond Coeffs # harmonic

1 361.8 1.105
2 652.57 1.218
3 383.13 1.351
4 563.51 0.973
5 554.135 1
6 0 2.08

Angle Coeffs # harmonic

1 51.617 106.55
2 65.93 123.65
3 65.262 109.49
4 115.745 122.1
5 118.817 130.25
6 30 109.47

Dihedral Coeffs # fourier

1 1 2.3 2 180
2 2 2.3 2 180 1.9 1 0

Improper Coeffs # cvff

1 10.5 -1 2
2 10.5 -1 2

Atoms # full

22 0 1 0.731 3.266386768011873 7.754760044323664 57.13633972833355 0 0 0
21 0 2 -0.123 3.296128314561895 7.725549444175105 56.0398736528053 0 0 0
1048 0 1 0.731 7.436772192763833 3.3948886940819833 57.13972103731814 0 1 0
1047 0 2 -0.123 7.474419808244409 3.404421355805514 56.04678657787865 0 1 0
170 0 1 0.731 11.7806602740758 7.804514418185194 57.07041800290095 0 0 0
169 0 2 -0.123 11.851800801361776 7.8053958018203495 55.9661719226322 0 0 0
160 0 1 0.731 7.506010968426706 11.943224712896363 57.13873410346595 0 0 0
159 0 2 -0.123 7.546258322706556 11.909918751662284 56.041275384118585 0 0 0
461 0 10 0.425 0.48888873540747074 10.46759678708307 59.10712412500159 0 0 0
19 2 7 1.575 0.08117799999999864 4.51944 59.618416999999994 0 0 0
2 0 8 -1.05 0.11801299999999859 6.602605 59.581582000000004 0 0 0
23 0 8 -1.05 2.1643429999999997 4.556275 59.581582000000004 0 0 0
20 0 3 -0.804 2.5053883633000655 7.025337325863902 57.749376229057226 0 0 0
789 1 7 1.575 11.741178000000001 11.939440000000001 60.678416999999996 0 0 0
154 0 3 -0.804 12.519458587708288 8.532917370179586 57.704908740640796 0 0 0
156 0 9 -0.975 4.195913307363531 6.771031569356432 59.79581608960241 0 0 0
164 0 9 -0.975 6.540917007825764 4.387662978622887 59.855668602294514 0 0 0
152 2 7 1.575 2.2011779999999996 6.639439999999998 59.618416999999994 0 0 0
163 2 7 1.575 6.441177999999999 2.3994399999999994 59.618416999999994 0 0 0
176 1 7 1.575 7.5011779999999995 7.69944 60.678416999999996 0 0 0
197 1 7 1.575 3.261178 3.45944 60.678416999999996 0 0 0
155 0 10 0.425 4.7267816754405345 6.24485387478648 59.08483077160666 0 0 0
165 0 10 0.425 8.961125270750426 1.9912859260194564 59.100911664319874 0 0 0
161 0 10 0.425 6.031887661391688 4.919387659866649 59.129728444671656 0 0 0
1041 0 9 -0.975 2.3068347765163595 0.1871575437942999 59.838744635073375 0 1 0
1046 2 6 1.05 4.321178000000001 0.27943999999999747 59.618416999999994 0 1 0
1037 0 8 -1.05 6.404343 0.3162749999999974 59.581582000000004 0 1 0
1060 0 8 -1.05 4.358013000000001 2.3626049999999985 59.581582000000004 0 1 0
1045 0 3 -0.804 6.6752598477685074 2.645943340213502 57.72536685533508 0 1 0
1039 0 10 0.425 1.7721480954521338 0.693005660202003 59.11426423046937 0 1 0
166 0 9 -0.975 8.446005551028536 2.48570045003941 59.85199578203733 0 0 0
167 2 7 1.575 8.561177999999998 4.51944 59.618416999999994 0 0 0
150 0 8 -1.05 8.598012999999998 6.602605 59.581582000000004 0 0 0
171 0 8 -1.05 10.644343 4.556275 59.581582000000004 0 0 0
168 0 3 -0.804 10.984951118282817 7.067298835986485 57.610000589393316 0 0 0
1050 0 3 -0.804 8.165849635298647 4.132714069370057 57.774818171929496 0 1 0
300 2 7 1.575 10.681178 6.639439999999998 59.618416999999994 0 0 0
345 1 7 1.575 11.741178000000001 3.45944 60.678416999999996 0 0 0
299 0 10 0.425 10.287811870478016 9.176939117970106 59.04296812321152 0 0 0
1189 0 9 -0.975 10.77659334205197 0.18102104963996538 59.8513723550119 0 1 0
1187 0 10 0.425 10.270006859516394 0.695213334763387 59.10746402543715 0 1 0
6 0 3 -0.804 3.9900590581886095 8.524643060250002 57.73992505480792 0 0 0
301 0 9 -0.975 10.823703115113348 8.72745948288419 59.78754080846454 0 0 0
153 0 9 -0.975 2.2772842782888754 8.686268241698288 59.85268303401477 0 0 0
158 2 7 1.575 4.321178000000001 8.759439999999998 59.618416999999994 0 0 0
149 0 8 -1.05 6.404343 8.796274999999998 59.581582000000004 0 0 0
172 0 8 -1.05 4.358013000000001 10.842604999999999 59.581582000000004 0 0 0
157 0 3 -0.804 6.7328584206883715 11.223494203742158 57.744607630536805 0 0 0
151 0 10 0.425 1.7840824619664821 9.179924086288192 59.08812606619941 0 0 0
607 2 7 1.575 6.441177999999999 10.879439999999999 59.618416999999994 0 0 0
641 1 7 1.575 3.261178 11.939440000000001 60.678416999999996 0 0 0
609 0 10 0.425 8.97647504386911 10.462063701007414 59.16332990638205 0 0 0
610 0 9 -0.975 8.429573074984319 11.012538137722437 59.85351285652607 0 0 0
17 0 10 0.425 0.4676057032038535 1.985460709444876 59.07614547948036 0 0 0
162 0 3 -0.804 8.225951280389058 12.711120234306302 57.74919893357083 0 0 0
29 0 8 -1.05 0.04434199999999855 6.676274999999998 63.89525199999999 0 0 0
42 0 8 -1.05 0.04434199999999855 4.482605 61.701581999999995 0 0 0
43 2 6 1.05 0.08117799999999864 2.3994399999999994 61.73841699999999 0 0 0
45 1 7 1.575 1.1411779999999991 5.57944 62.798417 0 0 0
920 0 8 -1.05 2.1643429999999997 0.3162749999999974 63.82158199999999 0 1 0
934 0 8 -1.05 2.1643429999999997 2.3626049999999985 61.775251999999995 0 1 0
932 0 8 -1.05 0.11801299999999859 2.3626049999999985 63.82158199999999 0 1 0
919 0 8 -1.05 0.11801299999999859 0.3162749999999974 61.775251999999995 0 1 0
918 2 6 1.05 0.08117799999999864 0.27943999999999747 63.858416999999996 0 1 0
200 0 8 -1.05 4.358013000000001 4.556275 61.775251999999995 0 0 0
196 0 8 -1.05 2.2380129999999996 4.482605 63.89525199999999 0 0 0
189 0 8 -1.05 6.478012999999999 2.4362749999999993 61.701581999999995 0 0 0
185 0 8 -1.05 4.358013000000001 6.602605 63.82158199999999 0 0 0
198 0 8 -1.05 4.284343000000001 2.4362749999999993 63.89525199999999 0 0 0
173 0 8 -1.05 6.404343 6.602605 61.775251999999995 0 0 0
182 0 8 -1.05 2.2380129999999996 6.676274999999998 61.701581999999995 0 0 0
187 0 8 -1.05 6.404343 4.556275 63.82158199999999 0 0 0
174 2 7 1.575 6.441177999999999 6.639439999999998 63.858416999999996 0 0 0
195 2 6 1.05 2.2011779999999996 2.3994399999999994 63.858416999999996 0 0 0
188 2 7 1.575 6.441177999999999 4.51944 61.73841699999999 0 0 0
184 2 7 1.575 4.321178000000001 6.639439999999998 61.73841699999999 0 0 0
199 2 7 1.575 4.321178000000001 4.51944 63.858416999999996 0 0 0
1071 0 8 -1.05 4.284343000000001 0.2426039999999965 61.701581999999995 0 1 0
1063 0 8 -1.05 6.478012999999999 0.2426039999999965 63.89525199999999 0 1 0
1069 2 7 1.575 2.2011779999999996 0.27943999999999747 61.73841699999999 0 1 0
1074 1 7 1.575 5.381178 1.3394399999999997 62.798417 0 1 0
177 0 8 -1.05 8.524341999999999 6.676274999999998 63.89525199999999 0 0 0
190 0 8 -1.05 8.524341999999999 4.482605 61.701581999999995 0 0 0
191 2 7 1.575 8.561177999999998 2.3994399999999994 61.73841699999999 0 0 0
193 1 7 1.575 9.621178 5.57944 62.798417 0 0 0
1068 0 8 -1.05 10.644343 0.3162749999999974 63.82158199999999 0 1 0
1082 0 8 -1.05 10.644343 2.3626049999999985 61.775251999999995 0 1 0
1080 0 8 -1.05 8.598012999999998 2.3626049999999985 63.82158199999999 0 1 0
1067 0 8 -1.05 8.598012999999998 0.3162749999999974 61.775251999999995 0 1 0
1066 2 7 1.575 8.561177999999998 0.27943999999999747 63.858416999999996 0 1 0
344 0 8 -1.05 10.718013 4.482605 63.89525199999999 0 0 0
330 0 8 -1.05 10.718013 6.676274999999998 61.701581999999995 0 0 0
343 2 7 1.575 10.681178 2.3994399999999994 63.858416999999996 0 0 0
1217 2 6 1.05 10.681178 0.27943999999999747 61.73841699999999 0 1 0
32 0 8 -1.05 2.1643429999999997 8.796274999999998 63.82158199999999 0 0 0
46 0 8 -1.05 2.1643429999999997 10.842604999999999 61.775251999999995 0 0 0
44 0 8 -1.05 0.11801299999999859 10.842604999999999 63.82158199999999 0 0 0
31 0 8 -1.05 0.11801299999999859 8.796274999999998 61.775251999999995 0 0 0
30 2 6 1.05 0.08117799999999864 8.759439999999998 63.858416999999996 0 0 0
487 2 7 1.575 0.08117799999999864 10.879439999999999 61.73841699999999 0 0 0
183 0 8 -1.05 4.284343000000001 8.722603999999997 61.701581999999995 0 0 0
175 0 8 -1.05 6.478012999999999 8.722603999999997 63.89525199999999 0 0 0
181 2 7 1.575 2.2011779999999996 8.759439999999998 61.73841699999999 0 0 0
186 1 7 1.575 5.381178 9.81944 62.798417 0 0 0
633 0 8 -1.05 6.478012999999999 10.916274999999999 61.701581999999995 0 0 0
642 0 8 -1.05 4.284343000000001 10.916274999999999 63.89525199999999 0 0 0
639 2 6 1.05 2.2011779999999996 10.879439999999999 63.858416999999996 0 0 0
180 0 8 -1.05 10.644343 8.796274999999998 63.82158199999999 0 0 0
194 0 8 -1.05 10.644343 10.842604999999999 61.775251999999995 0 0 0
192 0 8 -1.05 8.598012999999998 10.842604999999999 63.82158199999999 0 0 0
179 0 8 -1.05 8.598012999999998 8.796274999999998 61.775251999999995 0 0 0
178 2 6 1.05 8.561177999999998 8.759439999999998 63.858416999999996 0 0 0
635 2 7 1.575 8.561177999999998 10.879439999999999 61.73841699999999 0 0 0
329 2 6 1.05 10.681178 8.759439999999998 61.73841699999999 0 0 0
787 2 7 1.575 10.681178 10.879439999999999 63.858416999999996 0 0 0
91 0 8 -1.05 0.04434199999999855 4.482605 70.18158199999998 0 0 0
90 0 8 -1.05 0.04434199999999855 2.4362749999999993 68.135252 0 0 0
68 2 7 1.575 0.08117799999999864 4.51944 68.09841699999998 0 0 0
92 2 7 1.575 0.08117799999999864 2.3994399999999994 70.21841699999999 0 0 0
93 1 7 1.575 1.1411779999999991 5.57944 71.27841699999999 0 0 0
58 0 8 -1.05 0.11801299999999859 6.602605 68.06158199999999 0 0 0
69 0 8 -1.05 0.11801299999999859 4.556275 66.01525199999999 0 0 0
70 0 8 -1.05 2.1643429999999997 4.556275 68.06158199999999 0 0 0
60 0 8 -1.05 2.1643429999999997 6.602605 66.01525199999999 0 0 0
57 2 7 1.575 0.08117799999999864 6.639439999999998 65.978417 0 0 0
982 0 8 -1.05 2.1643429999999997 2.3626049999999985 70.25525199999998 0 1 0
967 0 8 -1.05 0.11801299999999859 0.3162749999999974 70.25525199999998 0 1 0
944 0 8 -1.05 0.04434199999999855 0.2426039999999965 65.94158099999999 0 1 0
947 1 7 1.575 1.1411779999999991 1.3394399999999997 67.038417 0 1 0
244 0 8 -1.05 4.358013000000001 4.556275 70.25525199999998 0 0 0
231 0 8 -1.05 4.284343000000001 6.676274999999998 68.135252 0 0 0
236 0 8 -1.05 6.478012999999999 2.4362749999999993 70.18158199999998 0 0 0
237 0 8 -1.05 6.478012999999999 4.482605 68.135252 0 0 0
225 0 8 -1.05 6.404343 6.602605 70.25525199999998 0 0 0
229 0 8 -1.05 2.2380129999999996 6.676274999999998 70.18158199999998 0 0 0
235 2 7 1.575 6.441177999999999 4.51944 70.21841699999999 0 0 0
209 2 7 1.575 2.2011779999999996 6.639439999999998 68.09841699999998 0 0 0
233 2 7 1.575 4.321178000000001 6.639439999999998 70.21841699999999 0 0 0
214 2 6 1.05 6.441177999999999 2.3994399999999994 68.09841699999998 0 0 0
226 1 7 1.575 7.5011779999999995 7.69944 69.158417 0 0 0
243 1 7 1.575 3.261178 3.45944 69.158417 0 0 0
220 0 8 -1.05 2.2380129999999996 2.4362749999999993 65.94158099999999 0 0 0
203 0 8 -1.05 6.478012999999999 6.676274999999998 65.94158099999999 0 0 0
221 0 8 -1.05 4.284343000000001 4.482605 65.94158099999999 0 0 0
222 2 7 1.575 4.321178000000001 2.3994399999999994 65.978417 0 0 0
219 2 6 1.05 2.2011779999999996 4.51944 65.978417 0 0 0
224 1 7 1.575 5.381178 5.57944 67.038417 0 0 0
210 1 7 1.575 3.261178 7.69944 64.91841699999998 0 0 0
215 1 7 1.575 7.5011779999999995 3.45944 64.91841699999998 0 0 0
1120 0 8 -1.05 4.284343000000001 0.2426039999999965 70.18158199999998 0 1 0
1118 0 8 -1.05 2.2380129999999996 0.2426039999999965 68.135252 0 1 0
1099 2 7 1.575 4.321178000000001 0.27943999999999747 68.09841699999998 0 1 0
1116 2 6 1.05 2.2011779999999996 0.27943999999999747 70.21841699999999 0 1 0
1122 1 7 1.575 5.381178 1.3394399999999997 71.27841699999999 0 1 0
1101 0 8 -1.05 6.404343 2.3626049999999985 66.01525199999999 0 1 0
1089 0 8 -1.05 6.404343 0.3162749999999974 68.06158199999999 0 1 0
1100 0 8 -1.05 4.358013000000001 0.3162749999999974 66.01525199999999 0 1 0
1111 0 8 -1.05 4.358013000000001 2.3626049999999985 68.06158199999999 0 1 0
1090 2 6 1.05 6.441177999999999 0.27943999999999747 65.978417 0 1 0
239 0 8 -1.05 8.524341999999999 4.482605 70.18158199999998 0 0 0
238 0 8 -1.05 8.524341999999999 2.4362749999999993 68.135252 0 0 0
216 2 7 1.575 8.561177999999998 4.51944 68.09841699999998 0 0 0
240 2 7 1.575 8.561177999999998 2.3994399999999994 70.21841699999999 0 0 0
241 1 7 1.575 9.621178 5.57944 71.27841699999999 0 0 0
206 0 8 -1.05 8.598012999999998 6.602605 68.06158199999999 0 0 0
217 0 8 -1.05 8.598012999999998 4.556275 66.01525199999999 0 0 0
218 0 8 -1.05 10.644343 4.556275 68.06158199999999 0 0 0
208 0 8 -1.05 10.644343 6.602605 66.01525199999999 0 0 0
205 2 6 1.05 8.561177999999998 6.639439999999998 65.978417 0 0 0
1130 0 8 -1.05 10.644343 2.3626049999999985 70.25525199999998 0 1 0
1115 0 8 -1.05 8.598012999999998 0.3162749999999974 70.25525199999998 0 1 0
1092 0 8 -1.05 8.524341999999999 0.2426039999999965 65.94158099999999 0 1 0
1095 1 7 1.575 9.621178 1.3394399999999997 67.038417 0 1 0
377 0 8 -1.05 10.718013 6.676274999999998 70.18158199999998 0 0 0
357 2 6 1.05 10.681178 6.639439999999998 68.09841699999998 0 0 0
391 1 7 1.575 11.741178000000001 3.45944 69.158417 0 0 0
368 0 8 -1.05 10.718013 2.4362749999999993 65.94158099999999 0 0 0
367 2 7 1.575 10.681178 4.51944 65.978417 0 0 0
358 1 7 1.575 11.741178000000001 7.69944 64.91841699999998 0 0 0
1266 0 8 -1.05 10.718013 0.2426039999999965 68.135252 0 1 0
1264 2 7 1.575 10.681178 0.27943999999999747 70.21841699999999 0 1 0
94 0 8 -1.05 2.1643429999999997 10.842604999999999 70.25525199999998 0 0 0
79 0 8 -1.05 0.11801299999999859 8.796274999999998 70.25525199999998 0 0 0
56 0 8 -1.05 0.04434199999999855 8.722603999999997 65.94158099999999 0 0 0
59 1 7 1.575 1.1411779999999991 9.81944 67.038417 0 0 0
534 0 8 -1.05 0.04434199999999855 10.916274999999999 68.135252 0 0 0
536 2 6 1.05 0.08117799999999864 10.879439999999999 70.21841699999999 0 0 0
232 0 8 -1.05 4.284343000000001 8.722603999999997 70.18158199999998 0 0 0
230 0 8 -1.05 2.2380129999999996 8.722603999999997 68.135252 0 0 0
211 2 7 1.575 4.321178000000001 8.759439999999998 68.09841699999998 0 0 0
228 2 6 1.05 2.2011779999999996 8.759439999999998 70.21841699999999 0 0 0
234 1 7 1.575 5.381178 9.81944 71.27841699999999 0 0 0
213 0 8 -1.05 6.404343 10.842604999999999 66.01525199999999 0 0 0
201 0 8 -1.05 6.404343 8.796274999999998 68.06158199999999 0 0 0
212 0 8 -1.05 4.358013000000001 8.796274999999998 66.01525199999999 0 0 0
223 0 8 -1.05 4.358013000000001 10.842604999999999 68.06158199999999 0 0 0
202 2 7 1.575 6.441177999999999 8.759439999999998 65.978417 0 0 0
680 0 8 -1.05 6.478012999999999 10.916274999999999 70.18158199999998 0 0 0
658 2 7 1.575 6.441177999999999 10.879439999999999 68.09841699999998 0 0 0
687 1 7 1.575 3.261178 11.939440000000001 69.158417 0 0 0
664 0 8 -1.05 2.2380129999999996 10.916274999999999 65.94158099999999 0 0 0
666 2 6 1.05 4.321178000000001 10.879439999999999 65.978417 0 0 0
659 1 7 1.575 7.5011779999999995 11.939440000000001 64.91841699999998 0 0 0
242 0 8 -1.05 10.644343 10.842604999999999 70.25525199999998 0 0 0
227 0 8 -1.05 8.598012999999998 8.796274999999998 70.25525199999998 0 0 0
204 0 8 -1.05 8.524341999999999 8.722603999999997 65.94158099999999 0 0 0
207 1 7 1.575 9.621178 9.81944 67.038417 0 0 0
682 0 8 -1.05 8.524341999999999 10.916274999999999 68.135252 0 0 0
684 2 6 1.05 8.561177999999998 10.879439999999999 70.21841699999999 0 0 0
378 0 8 -1.05 10.718013 8.722603999999997 68.135252 0 0 0
376 2 6 1.05 10.681178 8.759439999999998 70.21841699999999 0 0 0
835 1 7 1.575 11.741178000000001 11.939440000000001 69.158417 0 0 0
812 0 8 -1.05 10.718013 10.916274999999999 65.94158099999999 0 0 0
115 0 8 -1.05 0.11801299999999859 4.556275 74.49525199999998 0 0 0
101 0 8 -1.05 0.04434199999999855 6.676274999999998 72.37525199999999 0 0 0
106 0 8 -1.05 2.1643429999999997 6.602605 74.49525199999998 0 0 0
103 2 6 1.05 0.08117799999999864 6.639439999999998 74.458417 0 0 0
990 0 8 -1.05 0.04434199999999855 0.2426039999999965 74.421581 0 1 0
995 0 8 -1.05 2.1643429999999997 0.3162749999999974 72.30158199999998 0 1 0
1002 0 8 -1.05 0.11801299999999859 2.3626049999999985 72.30158199999998 0 1 0
992 2 7 1.575 0.08117799999999864 0.27943999999999747 72.33841699999998 0 1 0
267 0 8 -1.05 2.2380129999999996 4.482605 72.37525199999999 0 0 0
257 0 8 -1.05 4.358013000000001 6.602605 72.30158199999998 0 0 0
266 0 8 -1.05 2.2380129999999996 2.4362749999999993 74.421581 0 0 0
268 0 8 -1.05 4.284343000000001 2.4362749999999993 72.37525199999999 0 0 0
247 0 8 -1.05 6.478012999999999 6.676274999999998 74.421581 0 0 0
269 0 8 -1.05 4.284343000000001 4.482605 74.421581 0 0 0
260 0 8 -1.05 6.404343 4.556275 72.30158199999998 0 0 0
245 2 6 1.05 6.441177999999999 6.639439999999998 72.33841699999998 0 0 0
264 2 6 1.05 2.2011779999999996 2.3994399999999994 72.33841699999998 0 0 0
270 2 6 1.05 4.321178000000001 2.3994399999999994 74.458417 0 0 0
265 2 7 1.575 2.2011779999999996 4.51944 74.458417 0 0 0
271 2 7 1.575 4.321178000000001 4.51944 72.33841699999998 0 0 0
256 1 7 1.575 3.261178 7.69944 73.398417 0 0 0
261 1 7 1.575 7.5011779999999995 3.45944 73.398417 0 0 0
1147 0 8 -1.05 6.404343 2.3626049999999985 74.49525199999998 0 1 0
1146 0 8 -1.05 4.358013000000001 0.3162749999999974 74.49525199999998 0 1 0
1136 0 8 -1.05 6.478012999999999 0.2426039999999965 72.37525199999999 0 1 0
1134 2 6 1.05 6.441177999999999 0.27943999999999747 74.458417 0 1 0
263 0 8 -1.05 8.598012999999998 4.556275 74.49525199999998 0 0 0
249 0 8 -1.05 8.524341999999999 6.676274999999998 72.37525199999999 0 0 0
254 0 8 -1.05 10.644343 6.602605 74.49525199999998 0 0 0
251 2 7 1.575 8.561177999999998 6.639439999999998 74.458417 0 0 0
1138 0 8 -1.05 8.524341999999999 0.2426039999999965 74.421581 0 1 0
1143 0 8 -1.05 10.644343 0.3162749999999974 72.30158199999998 0 1 0
1150 0 8 -1.05 8.598012999999998 2.3626049999999985 72.30158199999998 0 1 0
1140 2 7 1.575 8.561177999999998 0.27943999999999747 72.33841699999998 0 1 0
415 0 8 -1.05 10.718013 4.482605 72.37525199999999 0 0 0
414 0 8 -1.05 10.718013 2.4362749999999993 74.421581 0 0 0
412 2 7 1.575 10.681178 2.3994399999999994 72.33841699999998 0 0 0
413 2 7 1.575 10.681178 4.51944 74.458417 0 0 0
404 1 7 1.575 11.741178000000001 7.69944 73.398417 0 0 0
102 0 8 -1.05 0.04434199999999855 8.722603999999997 74.421581 0 0 0
107 0 8 -1.05 2.1643429999999997 8.796274999999998 72.30158199999998 0 0 0
114 0 8 -1.05 0.11801299999999859 10.842604999999999 72.30158199999998 0 0 0
104 2 7 1.575 0.08117799999999864 8.759439999999998 72.33841699999998 0 0 0
259 0 8 -1.05 6.404343 10.842604999999999 74.49525199999998 0 0 0
258 0 8 -1.05 4.358013000000001 8.796274999999998 74.49525199999998 0 0 0
248 0 8 -1.05 6.478012999999999 8.722603999999997 72.37525199999999 0 0 0
246 2 7 1.575 6.441177999999999 8.759439999999998 74.458417 0 0 0
710 0 8 -1.05 2.2380129999999996 10.916274999999999 74.421581 0 0 0
712 0 8 -1.05 4.284343000000001 10.916274999999999 72.37525199999999 0 0 0
708 2 6 1.05 2.2011779999999996 10.879439999999999 72.33841699999998 0 0 0
714 2 6 1.05 4.321178000000001 10.879439999999999 74.458417 0 0 0
705 1 7 1.575 7.5011779999999995 11.939440000000001 73.398417 0 0 0
250 0 8 -1.05 8.524341999999999 8.722603999999997 74.421581 0 0 0
255 0 8 -1.05 10.644343 8.796274999999998 72.30158199999998 0 0 0
262 0 8 -1.05 8.598012999999998 10.842604999999999 72.30158199999998 0 0 0
252 2 6 1.05 8.561177999999998 8.759439999999998 72.33841699999998 0 0 0
858 0 8 -1.05 10.718013 10.916274999999999 74.421581 0 0 0
856 2 7 1.575 10.681178 10.879439999999999 72.33841699999998 0 0 0
143 2 7 1.575 0.08117799999999864 4.51944 76.578417 0 0 0
142 0 8 -1.05 0.04434199999999855 2.4362749999999993 76.615252 0 0 0
127 0 9 -0.975 0.22003660997736568 6.51665617419047 76.3971054301738 0 0 0
146 0 9 -0.975 2.121546421275362 4.619310354348081 76.3476360992245 0 0 0
144 0 3 -0.804 1.9975666202182127 6.303791908514937 78.4824960406761 0 0 0
139 0 3 -0.804 0.45282501133370906 4.849891174592416 78.47195132085426 0 0 0
147 0 10 0.425 2.614196919975921 4.099859060264921 77.09265745679888 0 0 0
280 0 2 -0.123 5.392357836946968 9.862044566239689 80.17127465124396 0 0 0
993 1 7 1.575 1.1411779999999991 1.3394399999999997 75.51841699999999 0 1 0
277 2 7 1.575 2.2011779999999996 6.639439999999998 76.578417 0 0 0
285 2 7 1.575 6.441177999999999 2.3994399999999994 76.578417 0 0 0
286 0 8 -1.05 6.478012999999999 4.482605 76.615252 0 0 0
281 0 8 -1.05 4.284343000000001 6.676274999999998 76.615252 0 0 0
272 1 7 1.575 5.381178 5.57944 75.51841699999999 0 0 0
274 0 10 0.425 6.850294980088194 8.347644392313374 77.09980401809615 0 0 0
1171 2 7 1.575 4.321178000000001 0.27943999999999747 76.578417 0 1 0
1166 0 8 -1.05 2.2380129999999996 0.2426039999999965 76.615252 0 1 0
1161 0 9 -0.975 6.3545784980475535 0.36667303492655684 76.35104728851326 0 1 0
1184 0 9 -0.975 4.442040717626375 2.282276310079431 76.41187114638313 0 1 0
1170 0 3 -0.804 6.186353831423282 2.0333455415394317 78.4656434029095 0 1 0
1164 0 3 -0.804 4.713812304933268 0.5117672508108155 78.46468089718891 0 1 0
1172 0 10 0.425 3.9074394950298155 2.8031664700016945 77.12157981723641 0 1 0
291 2 7 1.575 8.561177999999998 4.51944 76.578417 0 0 0
290 0 8 -1.05 8.524341999999999 2.4362749999999993 76.615252 0 0 0
275 0 9 -0.975 8.661076694355929 6.536109745344249 76.35133222564603 0 0 0
294 0 9 -0.975 10.563684394506783 4.638590591496174 76.34665755395919 0 0 0
292 0 3 -0.804 10.38914553222721 6.318616182818714 78.46219464322293 0 0 0
287 0 3 -0.804 8.885569708519663 4.834950613908093 78.46176530906578 0 0 0
295 0 10 0.425 11.092321086794117 4.11007026198696 77.06592636509814 0 0 0
293 0 10 0.425 8.151141152494302 7.045998438169793 77.09611330941343 0 0 0
1141 1 7 1.575 9.621178 1.3394399999999997 75.51841699999999 0 1 0
425 2 7 1.575 10.681178 6.639439999999998 76.578417 0 0 0
1314 0 8 -1.05 10.718013 0.2426039999999965 76.615252 0 1 0
105 1 7 1.575 1.1411779999999991 9.81944 75.51841699999999 0 0 0
586 0 8 -1.05 0.04434199999999855 10.916274999999999 76.615252 0 0 0
591 0 10 0.425 2.5959463105979483 12.58560289905772 77.13644553776956 0 0 0
283 2 7 1.575 4.321178000000001 8.759439999999998 76.578417 0 0 0
278 0 8 -1.05 2.2380129999999996 8.722603999999997 76.615252 0 0 0
273 0 9 -0.975 6.35122544874917 8.856733704456484 76.3480986839746 0 0 0
296 0 9 -0.975 4.4587279547907555 10.753066127422665 76.34966267282859 0 0 0
282 0 3 -0.804 6.167511061842705 10.588498423876844 78.4675122075372 0 0 0
276 0 3 -0.804 4.697008156820025 9.07339035108944 78.46127459961279 0 0 0
284 0 10 0.425 3.902225712779912 11.279195925417191 77.04819538147163 0 0 0
729 2 7 1.575 6.441177999999999 10.879439999999999 76.578417 0 0 0
253 1 7 1.575 9.621178 9.81944 75.51841699999999 0 0 0
734 0 8 -1.05 8.524341999999999 10.916274999999999 76.615252 0 0 0
739 0 10 0.425 11.084390881461886 12.59184150863639 77.06870653911514 0 0 0
426 0 8 -1.05 10.718013 8.722603999999997 76.615252 0 0 0
140 0 1 0.731 1.1941414036743545 5.6036677651463345 79.08131317023867 0 0 0
141 0 2 -0.123 1.1419334531156418 5.649311250187526 80.17832082727737 0 0 0
1167 0 1 0.731 5.425999911749718 1.2951305877730495 79.0709017642497 0 1 0
1168 0 2 -0.123 5.376578779315559 1.341433429527746 80.16663804943148 0 1 0
288 0 1 0.731 9.638713135125538 5.5745635187187155 79.07262618530902 0 0 0
289 0 2 -0.123 9.634320451960894 5.579091098524826 80.17078823521189 0 0 0
279 0 1 0.731 5.415712698789326 9.842785450052892 79.07605271387857 0 0 0
1320 0 10 0.425 12.378269778968173 2.8132637071303397 77.11538262181686 0 1 0
432 0 10 0.425 12.391142644453359 11.2764021127849 77.13208010215975 0 0 0
466 0 1 0.731 3.2699107851397478 16.16427920544573 57.126085430393935 0 0 0
465 0 2 -0.123 3.240588148977512 16.198599621146858 56.02923600176223 0 0 0
614 0 1 0.731 11.728495324115743 16.182263062170435 57.1192583843759 0 0 0
613 0 2 -0.123 11.761487278796409 16.160245019269755 56.02209004572317 0 0 0
910 0 1 0.731 3.2570738339876084 24.6440167025697 57.11831542863367 0 0 0
909 0 2 -0.123 3.2145224133480212 24.665856753141178 56.0206530509999 0 0 0
604 0 1 0.731 7.550619896840957 20.37114098914465 57.126156052550805 0 0 0
603 0 2 -0.123 7.531934942169651 20.392940518050473 56.02816271872029 0 0 0
1058 0 1 0.731 11.717684379878648 24.647622104964665 57.124702179521606 0 0 0
1057 0 2 -0.123 11.741182893164375 24.626690131903075 56.02781304395639 0 0 0
1042 0 3 -0.804 12.448265572229843 25.406711494205027 57.74093627704071 0 0 0
463 2 7 1.575 0.08117799999999864 12.99944 59.618416999999994 0 0 0
446 0 8 -1.05 0.11801299999999859 15.082605000000001 59.581582000000004 0 0 0
467 0 8 -1.05 2.1643429999999997 13.036275 59.581582000000004 0 0 0
464 0 3 -0.804 2.5440552065405395 15.392531899328102 57.73267591827958 0 0 0
600 0 9 -0.975 4.234394448218761 15.201755872103085 59.847639684551105 0 0 0
608 0 9 -0.975 6.532457128555545 12.911868420359932 59.85205093689798 0 0 0
596 2 7 1.575 2.2011779999999996 15.119439999999997 59.618416999999994 0 0 0
620 1 7 1.575 7.5011779999999995 16.17944 60.678416999999996 0 0 0
599 0 10 0.425 4.739348120626123 14.706138046554953 59.09168590860505 0 0 0
605 0 10 0.425 6.030282401750495 13.417045777021201 59.10198517979064 0 0 0
598 0 3 -0.804 12.460870482791925 16.94003343816118 57.73211522585226 0 0 0
611 2 7 1.575 8.561177999999998 12.99944 59.618416999999994 0 0 0
594 0 8 -1.05 8.598012999999998 15.082605000000001 59.581582000000004 0 0 0
615 0 8 -1.05 10.644343 13.036275 59.581582000000004 0 0 0
612 0 3 -0.804 10.958916413833434 15.451959440033404 57.72590486799312 0 0 0
744 2 7 1.575 10.681178 15.119439999999997 59.618416999999994 0 0 0
1192 0 9 -0.975 12.672349243449014 23.718428565961545 59.84687198952322 0 0 0
1233 1 7 1.575 11.741178000000001 20.41944 60.678416999999996 0 0 0
450 0 3 -0.804 4.030927103149803 16.896645676181983 57.73457280569328 0 0 0
1188 2 7 1.575 10.681178 23.599439999999998 59.618416999999994 0 0 0
907 2 7 1.575 0.08117799999999864 21.47944 59.618416999999994 0 0 0
890 0 8 -1.05 0.11801299999999859 23.562605 59.581582000000004 0 0 0
911 0 8 -1.05 2.1643429999999997 21.516275 59.581582000000004 0 0 0
908 0 3 -0.804 2.5382230851336836 23.873807500600652 57.72780612846819 0 0 0
597 0 9 -0.975 2.3227854163720556 17.11005317139862 59.79761436426424 0 0 0
602 2 7 1.575 4.321178000000001 17.23944 59.618416999999994 0 0 0
593 0 8 -1.05 6.404343 17.276275 59.581582000000004 0 0 0
616 0 8 -1.05 4.358013000000001 19.322605 59.581582000000004 0 0 0
601 0 3 -0.804 6.821319820554947 19.603348531275376 57.731257830118636 0 0 0
595 0 10 0.425 1.7973122665586674 17.64928315110522 59.09766906119634 0 0 0
1044 0 9 -0.975 4.219159599404468 23.719273863611686 59.7940514485146 0 0 0
1052 0 9 -0.975 6.555906854483636 21.370274008027387 59.83729767826506 0 0 0
1040 2 7 1.575 2.2011779999999996 23.599439999999998 59.618416999999994 0 0 0
1051 2 7 1.575 6.441177999999999 19.35944 59.618416999999994 0 0 0
1064 1 7 1.575 7.5011779999999995 24.65944 60.678416999999996 0 0 0
1085 1 7 1.575 3.261178 20.41944 60.678416999999996 0 0 0
1043 0 10 0.425 4.720756836546936 23.186409244659206 59.074894990857004 0 0 0
1053 0 10 0.425 8.977510181147533 18.952525777456298 59.07789910625165 0 0 0
1049 0 10 0.425 6.023883384749021 21.893616359757782 59.11987894444852 0 0 0
606 0 3 -0.804 8.29322962912044 21.12319521633268 57.73355484414883 0 0 0
1054 0 9 -0.975 8.460421872432649 19.458662336467746 59.808163677595594 0 0 0
1055 2 7 1.575 8.561177999999998 21.47944 59.618416999999994 0 0 0
1038 0 8 -1.05 8.598012999999998 23.562605 59.581582000000004 0 0 0
1059 0 8 -1.05 10.644343 21.516275 59.581582000000004 0 0 0
1056 0 3 -0.804 10.956736616989422 23.91304987028418 57.73232440503651 0 0 0
745 0 9 -0.975 10.77770672360462 17.125002575601233 59.854752484484116 0 0 0
743 0 10 0.425 10.273597781397488 17.65339816315212 59.11931236737294 0 0 0
905 0 10 0.425 0.5049253440783545 18.939877782291607 59.09490447058598 0 0 0
748 0 9 -0.975 12.665851557823823 15.236396486503196 59.85013361693505 0 0 0
894 0 3 -0.804 4.010454564585856 25.394044650614088 57.719790064284496 0 0 0
473 0 8 -1.05 0.04434199999999855 15.156274999999997 63.89525199999999 0 0 0
486 0 8 -1.05 0.04434199999999855 12.962605 61.701581999999995 0 0 0
489 1 7 1.575 1.1411779999999991 14.05944 62.798417 0 0 0
644 0 8 -1.05 4.358013000000001 13.036275 61.775251999999995 0 0 0
640 0 8 -1.05 2.2380129999999996 12.962605 63.89525199999999 0 0 0
629 0 8 -1.05 4.358013000000001 15.082605000000001 63.82158199999999 0 0 0
617 0 8 -1.05 6.404343 15.082605000000001 61.775251999999995 0 0 0
626 0 8 -1.05 2.2380129999999996 15.156274999999997 61.701581999999995 0 0 0
631 0 8 -1.05 6.404343 13.036275 63.82158199999999 0 0 0
618 2 7 1.575 6.441177999999999 15.119439999999997 63.858416999999996 0 0 0
632 2 7 1.575 6.441177999999999 12.99944 61.73841699999999 0 0 0
628 2 7 1.575 4.321178000000001 15.119439999999997 61.73841699999999 0 0 0
643 2 7 1.575 4.321178000000001 12.99944 63.858416999999996 0 0 0
621 0 8 -1.05 8.524341999999999 15.156274999999997 63.89525199999999 0 0 0
634 0 8 -1.05 8.524341999999999 12.962605 61.701581999999995 0 0 0
637 1 7 1.575 9.621178 14.05944 62.798417 0 0 0
788 0 8 -1.05 10.718013 12.962605 63.89525199999999 0 0 0
774 0 8 -1.05 10.718013 15.156274999999997 61.701581999999995 0 0 0
476 0 8 -1.05 2.1643429999999997 17.276275 63.82158199999999 0 0 0
490 0 8 -1.05 2.1643429999999997 19.322605 61.775251999999995 0 0 0
488 0 8 -1.05 0.11801299999999859 19.322605 63.82158199999999 0 0 0
475 0 8 -1.05 0.11801299999999859 17.276275 61.775251999999995 0 0 0
474 2 6 1.05 0.08117799999999864 17.23944 63.858416999999996 0 0 0
917 0 8 -1.05 0.04434199999999855 23.636274999999998 63.89525199999999 0 0 0
930 0 8 -1.05 0.04434199999999855 21.442605 61.701581999999995 0 0 0
931 2 6 1.05 0.08117799999999864 19.35944 61.73841699999999 0 0 0