LAMMPS data file via write_data, version 29 Sep 2021, timestep = 1628949

1332 atoms
10 atom types
180 bonds
6 bond types
324 angles
6 angle types
0 dihedrals
2 dihedral types
36 impropers
2 improper types

0 25.44 xlo xhi
0 25.44 ylo yhi
35.929417 100.267417 zlo zhi

Masses

1 12.011
2 1.008
3 15.9994
4 15.9994
5 1.008
6 55.845
7 55.845
8 15.9994
9 15.9994
10 1.008

Pair Coeffs # lj/cut/coul/long

1 0.0988 3.31521
2 0.0161 2.4473
3 0.1463 3.04812
4 0.093 3.24287
5 0.0047 0.537925
6 9.0298e-07 4.9062
7 9.0298e-07 4.9062
8 0.1554 3.16554
9 0.1554 3.16554
10 0 0

Bond Coeffs # harmonic

1 361.8 1.105
2 652.57 1.218
3 383.13 1.351
4 563.51 0.973
5 554.135 1
6 0 2.08

Angle Coeffs # harmonic

1 51.617 106.55
2 65.93 123.65
3 65.262 109.49
4 115.745 122.1
5 118.817 130.25
6 30 109.47

Dihedral Coeffs # fourier

1 1 2.3 2 180
2 2 2.3 2 180 1.9 1 0

Improper Coeffs # cvff

1 10.5 -1 2
2 10.5 -1 2

Atoms # full

22 0 1 0.731 3.247615792737603 7.709215977586382 57.12562476303289 0 0 0
21 0 2 -0.123 3.2467770623353123 7.713193683687787 56.02744093427864 0 0 0
1048 0 1 0.731 7.50652737385595 3.458868655025242 57.12396201268964 0 1 0
1047 0 2 -0.123 7.5010843141545696 3.465683067424694 56.025546770376465 0 1 0
170 0 1 0.731 11.735533489747148 7.702995910643675 57.125697680230445 0 0 0
169 0 2 -0.123 11.722518638877583 7.715774974262886 56.0275029104836 0 0 0
160 0 1 0.731 7.513172362418263 11.923770709857658 57.12129185809772 0 0 0
159 0 2 -0.123 7.517759182673495 11.92132410145154 56.02461917379323 0 0 0
461 0 10 0.425 0.49121579156280504 10.470525837067466 59.106489818629235 0 0 0
19 2 7 1.575 0.08117799999999864 4.51944 59.618416999999994 0 0 0
2 0 8 -1.05 0.11801299999999859 6.602605 59.581582000000004 0 0 0
23 0 8 -1.05 2.1643429999999997 4.556275 59.581582000000004 0 0 0
20 0 3 -0.804 2.5029696264064 6.960520149592113 57.73493258289206 0 0 0
789 1 7 1.575 11.741178000000001 11.939440000000001 60.678416999999996 0 0 0
154 0 3 -0.804 12.486382781898051 8.444315654173217 57.73497489777432 0 0 0
156 0 9 -0.975 4.207235025554069 6.743827967975802 59.83950954637649 0 0 0
164 0 9 -0.975 6.541766556504872 4.410876018494579 59.83636780501339 0 0 0
152 2 7 1.575 2.2011779999999996 6.639439999999998 59.618416999999994 0 0 0
163 2 7 1.575 6.441177999999999 2.3994399999999994 59.618416999999994 0 0 0
176 1 7 1.575 7.5011779999999995 7.69944 60.678416999999996 0 0 0
197 1 7 1.575 3.261178 3.45944 60.678416999999996 0 0 0
155 0 10 0.425 4.7340069406035505 6.231912524955326 59.1117271042184 0 0 0
165 0 10 0.425 8.975387266709834 1.9884579329472205 59.11982880525947 0 0 0
161 0 10 0.425 6.032696365137527 4.934495595206988 59.10448671875805 0 0 0
1041 0 9 -0.975 2.30869296348543 0.17533376144688256 59.84291826478048 0 1 0
1046 2 7 1.575 4.321178000000001 0.27943999999999747 59.618416999999994 0 1 0
1037 0 8 -1.05 6.404343 0.3162749999999974 59.581582000000004 0 1 0
1060 0 8 -1.05 4.358013000000001 2.3626049999999985 59.581582000000004 0 1 0
1045 0 3 -0.804 6.762005575468299 2.708261767511887 57.732003875365194 0 1 0
1039 0 10 0.425 1.7897678937143615 0.687234416504089 59.10832155582965 0 1 0
166 0 9 -0.975 8.448222875559921 2.5068484772449073 59.84083488314233 0 0 0
167 2 7 1.575 8.561177999999998 4.51944 59.618416999999994 0 0 0
150 0 8 -1.05 8.598012999999998 6.602605 59.581582000000004 0 0 0
171 0 8 -1.05 10.644343 4.556275 59.581582000000004 0 0 0
168 0 3 -0.804 10.996612491413627 6.94824515117058 57.73450491053887 0 0 0
1050 0 3 -0.804 8.255086808631905 4.202562668473648 57.73402726650012 0 1 0
300 2 7 1.575 10.681178 6.639439999999998 59.618416999999994 0 0 0
345 1 7 1.575 11.741178000000001 3.45944 60.678416999999996 0 0 0
299 0 10 0.425 10.27113198707871 9.172664186138693 59.1176617186736 0 0 0
1189 0 9 -0.975 10.780700542103824 0.17271054746860018 59.83833338431421 0 1 0
1187 0 10 0.425 10.27555094988123 0.6886909677286933 59.098294709073066 0 1 0
6 0 3 -0.804 3.993760703483245 8.45324714281216 57.73730209171245 0 0 0
301 0 9 -0.975 10.791049089995617 8.647772062697966 59.84059105936725 0 0 0
153 0 9 -0.975 2.3031742775985204 8.649795695691575 59.84506622139748 0 0 0
158 2 7 1.575 4.321178000000001 8.759439999999998 59.618416999999994 0 0 0
149 0 8 -1.05 6.404343 8.796274999999998 59.581582000000004 0 0 0
172 0 8 -1.05 4.358013000000001 10.842604999999999 59.581582000000004 0 0 0
157 0 3 -0.804 6.761441383963759 11.1755476842575 57.72481678713703 0 0 0
151 0 10 0.425 1.7935038267141843 9.169828876094543 59.1102853882299 0 0 0
607 2 7 1.575 6.441177999999999 10.879439999999999 59.618416999999994 0 0 0
641 1 7 1.575 3.261178 11.939440000000001 60.678416999999996 0 0 0
609 0 10 0.425 8.981624737250836 10.462026540093275 59.1008241912044 0 0 0
610 0 9 -0.975 8.462825717688608 10.972540509034221 59.83263531798574 0 0 0
17 0 10 0.425 0.48906925331624357 1.9864671650760126 59.10282336267178 0 0 0
304 0 9 -0.975 12.696265319906022 6.745313371736643 59.84317388244901 0 0 0
162 0 3 -0.804 8.261605541070802 12.67249017015665 57.72676001282278 0 0 0
29 0 8 -1.05 0.04434199999999855 6.676274999999998 63.89525199999999 0 0 0
42 0 8 -1.05 0.04434199999999855 4.482605 61.701581999999995 0 0 0
43 2 7 1.575 0.08117799999999864 2.3994399999999994 61.73841699999999 0 0 0
45 1 7 1.575 1.1411779999999991 5.57944 62.798417 0 0 0
920 0 8 -1.05 2.1643429999999997 0.3162749999999974 63.82158199999999 0 1 0
934 0 8 -1.05 2.1643429999999997 2.3626049999999985 61.775251999999995 0 1 0
932 0 8 -1.05 0.11801299999999859 2.3626049999999985 63.82158199999999 0 1 0
919 0 8 -1.05 0.11801299999999859 0.3162749999999974 61.775251999999995 0 1 0
918 2 7 1.575 0.08117799999999864 0.27943999999999747 63.858416999999996 0 1 0
200 0 8 -1.05 4.358013000000001 4.556275 61.775251999999995 0 0 0
196 0 8 -1.05 2.2380129999999996 4.482605 63.89525199999999 0 0 0
189 0 8 -1.05 6.478012999999999 2.4362749999999993 61.701581999999995 0 0 0
185 0 8 -1.05 4.358013000000001 6.602605 63.82158199999999 0 0 0
198 0 8 -1.05 4.284343000000001 2.4362749999999993 63.89525199999999 0 0 0
173 0 8 -1.05 6.404343 6.602605 61.775251999999995 0 0 0
182 0 8 -1.05 2.2380129999999996 6.676274999999998 61.701581999999995 0 0 0
187 0 8 -1.05 6.404343 4.556275 63.82158199999999 0 0 0
174 2 6 1.05 6.441177999999999 6.639439999999998 63.858416999999996 0 0 0
195 2 6 1.05 2.2011779999999996 2.3994399999999994 63.858416999999996 0 0 0
188 2 7 1.575 6.441177999999999 4.51944 61.73841699999999 0 0 0
184 2 7 1.575 4.321178000000001 6.639439999999998 61.73841699999999 0 0 0
199 2 6 1.05 4.321178000000001 4.51944 63.858416999999996 0 0 0
1071 0 8 -1.05 4.284343000000001 0.2426039999999965 61.701581999999995 0 1 0
1063 0 8 -1.05 6.478012999999999 0.2426039999999965 63.89525199999999 0 1 0
1069 2 7 1.575 2.2011779999999996 0.27943999999999747 61.73841699999999 0 1 0
1074 1 7 1.575 5.381178 1.3394399999999997 62.798417 0 1 0
177 0 8 -1.05 8.524341999999999 6.676274999999998 63.89525199999999 0 0 0
190 0 8 -1.05 8.524341999999999 4.482605 61.701581999999995 0 0 0
191 2 7 1.575 8.561177999999998 2.3994399999999994 61.73841699999999 0 0 0
193 1 7 1.575 9.621178 5.57944 62.798417 0 0 0
1068 0 8 -1.05 10.644343 0.3162749999999974 63.82158199999999 0 1 0
1082 0 8 -1.05 10.644343 2.3626049999999985 61.775251999999995 0 1 0
1080 0 8 -1.05 8.598012999999998 2.3626049999999985 63.82158199999999 0 1 0
1067 0 8 -1.05 8.598012999999998 0.3162749999999974 61.775251999999995 0 1 0
1066 2 6 1.05 8.561177999999998 0.27943999999999747 63.858416999999996 0 1 0
344 0 8 -1.05 10.718013 4.482605 63.89525199999999 0 0 0
330 0 8 -1.05 10.718013 6.676274999999998 61.701581999999995 0 0 0
343 2 6 1.05 10.681178 2.3994399999999994 63.858416999999996 0 0 0
1217 2 7 1.575 10.681178 0.27943999999999747 61.73841699999999 0 1 0
32 0 8 -1.05 2.1643429999999997 8.796274999999998 63.82158199999999 0 0 0
46 0 8 -1.05 2.1643429999999997 10.842604999999999 61.775251999999995 0 0 0
44 0 8 -1.05 0.11801299999999859 10.842604999999999 63.82158199999999 0 0 0
31 0 8 -1.05 0.11801299999999859 8.796274999999998 61.775251999999995 0 0 0
30 2 6 1.05 0.08117799999999864 8.759439999999998 63.858416999999996 0 0 0
487 2 7 1.575 0.08117799999999864 10.879439999999999 61.73841699999999 0 0 0
183 0 8 -1.05 4.284343000000001 8.722603999999997 61.701581999999995 0 0 0
175 0 8 -1.05 6.478012999999999 8.722603999999997 63.89525199999999 0 0 0
181 2 7 1.575 2.2011779999999996 8.759439999999998 61.73841699999999 0 0 0
186 1 7 1.575 5.381178 9.81944 62.798417 0 0 0
633 0 8 -1.05 6.478012999999999 10.916274999999999 61.701581999999995 0 0 0
642 0 8 -1.05 4.284343000000001 10.916274999999999 63.89525199999999 0 0 0
639 2 6 1.05 2.2011779999999996 10.879439999999999 63.858416999999996 0 0 0
180 0 8 -1.05 10.644343 8.796274999999998 63.82158199999999 0 0 0
194 0 8 -1.05 10.644343 10.842604999999999 61.775251999999995 0 0 0
192 0 8 -1.05 8.598012999999998 10.842604999999999 63.82158199999999 0 0 0
179 0 8 -1.05 8.598012999999998 8.796274999999998 61.775251999999995 0 0 0
178 2 6 1.05 8.561177999999998 8.759439999999998 63.858416999999996 0 0 0
635 2 6 1.05 8.561177999999998 10.879439999999999 61.73841699999999 0 0 0
329 2 7 1.575 10.681178 8.759439999999998 61.73841699999999 0 0 0
787 2 7 1.575 10.681178 10.879439999999999 63.858416999999996 0 0 0
91 0 8 -1.05 0.04434199999999855 4.482605 70.18158199999998 0 0 0
90 0 8 -1.05 0.04434199999999855 2.4362749999999993 68.135252 0 0 0
68 2 6 1.05 0.08117799999999864 4.51944 68.09841699999998 0 0 0
92 2 7 1.575 0.08117799999999864 2.3994399999999994 70.21841699999999 0 0 0
93 1 7 1.575 1.1411779999999991 5.57944 71.27841699999999 0 0 0
58 0 8 -1.05 0.11801299999999859 6.602605 68.06158199999999 0 0 0
69 0 8 -1.05 0.11801299999999859 4.556275 66.01525199999999 0 0 0
70 0 8 -1.05 2.1643429999999997 4.556275 68.06158199999999 0 0 0
60 0 8 -1.05 2.1643429999999997 6.602605 66.01525199999999 0 0 0
57 2 6 1.05 0.08117799999999864 6.639439999999998 65.978417 0 0 0
982 0 8 -1.05 2.1643429999999997 2.3626049999999985 70.25525199999998 0 1 0
967 0 8 -1.05 0.11801299999999859 0.3162749999999974 70.25525199999998 0 1 0
944 0 8 -1.05 0.04434199999999855 0.2426039999999965 65.94158099999999 0 1 0
947 1 7 1.575 1.1411779999999991 1.3394399999999997 67.038417 0 1 0
244 0 8 -1.05 4.358013000000001 4.556275 70.25525199999998 0 0 0
231 0 8 -1.05 4.284343000000001 6.676274999999998 68.135252 0 0 0
236 0 8 -1.05 6.478012999999999 2.4362749999999993 70.18158199999998 0 0 0
237 0 8 -1.05 6.478012999999999 4.482605 68.135252 0 0 0
225 0 8 -1.05 6.404343 6.602605 70.25525199999998 0 0 0
229 0 8 -1.05 2.2380129999999996 6.676274999999998 70.18158199999998 0 0 0
235 2 6 1.05 6.441177999999999 4.51944 70.21841699999999 0 0 0
209 2 7 1.575 2.2011779999999996 6.639439999999998 68.09841699999998 0 0 0
233 2 7 1.575 4.321178000000001 6.639439999999998 70.21841699999999 0 0 0
214 2 6 1.05 6.441177999999999 2.3994399999999994 68.09841699999998 0 0 0
226 1 7 1.575 7.5011779999999995 7.69944 69.158417 0 0 0
243 1 7 1.575 3.261178 3.45944 69.158417 0 0 0
220 0 8 -1.05 2.2380129999999996 2.4362749999999993 65.94158099999999 0 0 0
203 0 8 -1.05 6.478012999999999 6.676274999999998 65.94158099999999 0 0 0
221 0 8 -1.05 4.284343000000001 4.482605 65.94158099999999 0 0 0
222 2 6 1.05 4.321178000000001 2.3994399999999994 65.978417 0 0 0
219 2 7 1.575 2.2011779999999996 4.51944 65.978417 0 0 0
224 1 7 1.575 5.381178 5.57944 67.038417 0 0 0
210 1 7 1.575 3.261178 7.69944 64.91841699999998 0 0 0
215 1 7 1.575 7.5011779999999995 3.45944 64.91841699999998 0 0 0
1120 0 8 -1.05 4.284343000000001 0.2426039999999965 70.18158199999998 0 1 0
1118 0 8 -1.05 2.2380129999999996 0.2426039999999965 68.135252 0 1 0
1099 2 7 1.575 4.321178000000001 0.27943999999999747 68.09841699999998 0 1 0
1116 2 6 1.05 2.2011779999999996 0.27943999999999747 70.21841699999999 0 1 0
1122 1 7 1.575 5.381178 1.3394399999999997 71.27841699999999 0 1 0
1101 0 8 -1.05 6.404343 2.3626049999999985 66.01525199999999 0 1 0
1089 0 8 -1.05 6.404343 0.3162749999999974 68.06158199999999 0 1 0
1100 0 8 -1.05 4.358013000000001 0.3162749999999974 66.01525199999999 0 1 0
1111 0 8 -1.05 4.358013000000001 2.3626049999999985 68.06158199999999 0 1 0
1090 2 7 1.575 6.441177999999999 0.27943999999999747 65.978417 0 1 0
239 0 8 -1.05 8.524341999999999 4.482605 70.18158199999998 0 0 0
238 0 8 -1.05 8.524341999999999 2.4362749999999993 68.135252 0 0 0
216 2 7 1.575 8.561177999999998 4.51944 68.09841699999998 0 0 0
240 2 7 1.575 8.561177999999998 2.3994399999999994 70.21841699999999 0 0 0
241 1 7 1.575 9.621178 5.57944 71.27841699999999 0 0 0
206 0 8 -1.05 8.598012999999998 6.602605 68.06158199999999 0 0 0
217 0 8 -1.05 8.598012999999998 4.556275 66.01525199999999 0 0 0
218 0 8 -1.05 10.644343 4.556275 68.06158199999999 0 0 0
208 0 8 -1.05 10.644343 6.602605 66.01525199999999 0 0 0
205 2 7 1.575 8.561177999999998 6.639439999999998 65.978417 0 0 0
1130 0 8 -1.05 10.644343 2.3626049999999985 70.25525199999998 0 1 0
1115 0 8 -1.05 8.598012999999998 0.3162749999999974 70.25525199999998 0 1 0
1092 0 8 -1.05 8.524341999999999 0.2426039999999965 65.94158099999999 0 1 0
1095 1 7 1.575 9.621178 1.3394399999999997 67.038417 0 1 0
377 0 8 -1.05 10.718013 6.676274999999998 70.18158199999998 0 0 0
357 2 6 1.05 10.681178 6.639439999999998 68.09841699999998 0 0 0
391 1 7 1.575 11.741178000000001 3.45944 69.158417 0 0 0
368 0 8 -1.05 10.718013 2.4362749999999993 65.94158099999999 0 0 0
367 2 6 1.05 10.681178 4.51944 65.978417 0 0 0
358 1 7 1.575 11.741178000000001 7.69944 64.91841699999998 0 0 0
1266 0 8 -1.05 10.718013 0.2426039999999965 68.135252 0 1 0
1264 2 7 1.575 10.681178 0.27943999999999747 70.21841699999999 0 1 0
94 0 8 -1.05 2.1643429999999997 10.842604999999999 70.25525199999998 0 0 0
79 0 8 -1.05 0.11801299999999859 8.796274999999998 70.25525199999998 0 0 0
56 0 8 -1.05 0.04434199999999855 8.722603999999997 65.94158099999999 0 0 0
59 1 7 1.575 1.1411779999999991 9.81944 67.038417 0 0 0
534 0 8 -1.05 0.04434199999999855 10.916274999999999 68.135252 0 0 0
536 2 7 1.575 0.08117799999999864 10.879439999999999 70.21841699999999 0 0 0
232 0 8 -1.05 4.284343000000001 8.722603999999997 70.18158199999998 0 0 0
230 0 8 -1.05 2.2380129999999996 8.722603999999997 68.135252 0 0 0
211 2 6 1.05 4.321178000000001 8.759439999999998 68.09841699999998 0 0 0
228 2 7 1.575 2.2011779999999996 8.759439999999998 70.21841699999999 0 0 0
234 1 7 1.575 5.381178 9.81944 71.27841699999999 0 0 0
213 0 8 -1.05 6.404343 10.842604999999999 66.01525199999999 0 0 0
201 0 8 -1.05 6.404343 8.796274999999998 68.06158199999999 0 0 0
212 0 8 -1.05 4.358013000000001 8.796274999999998 66.01525199999999 0 0 0
223 0 8 -1.05 4.358013000000001 10.842604999999999 68.06158199999999 0 0 0
202 2 7 1.575 6.441177999999999 8.759439999999998 65.978417 0 0 0
680 0 8 -1.05 6.478012999999999 10.916274999999999 70.18158199999998 0 0 0
658 2 6 1.05 6.441177999999999 10.879439999999999 68.09841699999998 0 0 0
687 1 7 1.575 3.261178 11.939440000000001 69.158417 0 0 0
664 0 8 -1.05 2.2380129999999996 10.916274999999999 65.94158099999999 0 0 0
666 2 7 1.575 4.321178000000001 10.879439999999999 65.978417 0 0 0
659 1 7 1.575 7.5011779999999995 11.939440000000001 64.91841699999998 0 0 0
242 0 8 -1.05 10.644343 10.842604999999999 70.25525199999998 0 0 0
227 0 8 -1.05 8.598012999999998 8.796274999999998 70.25525199999998 0 0 0
204 0 8 -1.05 8.524341999999999 8.722603999999997 65.94158099999999 0 0 0
207 1 7 1.575 9.621178 9.81944 67.038417 0 0 0
682 0 8 -1.05 8.524341999999999 10.916274999999999 68.135252 0 0 0
684 2 7 1.575 8.561177999999998 10.879439999999999 70.21841699999999 0 0 0
378 0 8 -1.05 10.718013 8.722603999999997 68.135252 0 0 0
376 2 6 1.05 10.681178 8.759439999999998 70.21841699999999 0 0 0
835 1 7 1.575 11.741178000000001 11.939440000000001 69.158417 0 0 0
812 0 8 -1.05 10.718013 10.916274999999999 65.94158099999999 0 0 0
115 0 8 -1.05 0.11801299999999859 4.556275 74.49525199999998 0 0 0
101 0 8 -1.05 0.04434199999999855 6.676274999999998 72.37525199999999 0 0 0
106 0 8 -1.05 2.1643429999999997 6.602605 74.49525199999998 0 0 0
103 2 6 1.05 0.08117799999999864 6.639439999999998 74.458417 0 0 0
990 0 8 -1.05 0.04434199999999855 0.2426039999999965 74.421581 0 1 0
995 0 8 -1.05 2.1643429999999997 0.3162749999999974 72.30158199999998 0 1 0
1002 0 8 -1.05 0.11801299999999859 2.3626049999999985 72.30158199999998 0 1 0
992 2 6 1.05 0.08117799999999864 0.27943999999999747 72.33841699999998 0 1 0
267 0 8 -1.05 2.2380129999999996 4.482605 72.37525199999999 0 0 0
257 0 8 -1.05 4.358013000000001 6.602605 72.30158199999998 0 0 0
266 0 8 -1.05 2.2380129999999996 2.4362749999999993 74.421581 0 0 0
268 0 8 -1.05 4.284343000000001 2.4362749999999993 72.37525199999999 0 0 0
247 0 8 -1.05 6.478012999999999 6.676274999999998 74.421581 0 0 0
269 0 8 -1.05 4.284343000000001 4.482605 74.421581 0 0 0
260 0 8 -1.05 6.404343 4.556275 72.30158199999998 0 0 0
245 2 6 1.05 6.441177999999999 6.639439999999998 72.33841699999998 0 0 0
264 2 6 1.05 2.2011779999999996 2.3994399999999994 72.33841699999998 0 0 0
270 2 7 1.575 4.321178000000001 2.3994399999999994 74.458417 0 0 0
265 2 7 1.575 2.2011779999999996 4.51944 74.458417 0 0 0
271 2 6 1.05 4.321178000000001 4.51944 72.33841699999998 0 0 0
256 1 7 1.575 3.261178 7.69944 73.398417 0 0 0
261 1 7 1.575 7.5011779999999995 3.45944 73.398417 0 0 0
1147 0 8 -1.05 6.404343 2.3626049999999985 74.49525199999998 0 1 0
1146 0 8 -1.05 4.358013000000001 0.3162749999999974 74.49525199999998 0 1 0
1136 0 8 -1.05 6.478012999999999 0.2426039999999965 72.37525199999999 0 1 0
1134 2 7 1.575 6.441177999999999 0.27943999999999747 74.458417 0 1 0
263 0 8 -1.05 8.598012999999998 4.556275 74.49525199999998 0 0 0
249 0 8 -1.05 8.524341999999999 6.676274999999998 72.37525199999999 0 0 0
254 0 8 -1.05 10.644343 6.602605 74.49525199999998 0 0 0
251 2 7 1.575 8.561177999999998 6.639439999999998 74.458417 0 0 0
1138 0 8 -1.05 8.524341999999999 0.2426039999999965 74.421581 0 1 0
1143 0 8 -1.05 10.644343 0.3162749999999974 72.30158199999998 0 1 0
1150 0 8 -1.05 8.598012999999998 2.3626049999999985 72.30158199999998 0 1 0
1140 2 6 1.05 8.561177999999998 0.27943999999999747 72.33841699999998 0 1 0
415 0 8 -1.05 10.718013 4.482605 72.37525199999999 0 0 0
414 0 8 -1.05 10.718013 2.4362749999999993 74.421581 0 0 0
412 2 6 1.05 10.681178 2.3994399999999994 72.33841699999998 0 0 0
413 2 7 1.575 10.681178 4.51944 74.458417 0 0 0
404 1 7 1.575 11.741178000000001 7.69944 73.398417 0 0 0
102 0 8 -1.05 0.04434199999999855 8.722603999999997 74.421581 0 0 0
107 0 8 -1.05 2.1643429999999997 8.796274999999998 72.30158199999998 0 0 0
114 0 8 -1.05 0.11801299999999859 10.842604999999999 72.30158199999998 0 0 0
104 2 6 1.05 0.08117799999999864 8.759439999999998 72.33841699999998 0 0 0
259 0 8 -1.05 6.404343 10.842604999999999 74.49525199999998 0 0 0
258 0 8 -1.05 4.358013000000001 8.796274999999998 74.49525199999998 0 0 0
248 0 8 -1.05 6.478012999999999 8.722603999999997 72.37525199999999 0 0 0
246 2 7 1.575 6.441177999999999 8.759439999999998 74.458417 0 0 0
710 0 8 -1.05 2.2380129999999996 10.916274999999999 74.421581 0 0 0
712 0 8 -1.05 4.284343000000001 10.916274999999999 72.37525199999999 0 0 0
708 2 6 1.05 2.2011779999999996 10.879439999999999 72.33841699999998 0 0 0
714 2 7 1.575 4.321178000000001 10.879439999999999 74.458417 0 0 0
705 1 7 1.575 7.5011779999999995 11.939440000000001 73.398417 0 0 0
250 0 8 -1.05 8.524341999999999 8.722603999999997 74.421581 0 0 0
255 0 8 -1.05 10.644343 8.796274999999998 72.30158199999998 0 0 0
262 0 8 -1.05 8.598012999999998 10.842604999999999 72.30158199999998 0 0 0
252 2 7 1.575 8.561177999999998 8.759439999999998 72.33841699999998 0 0 0
858 0 8 -1.05 10.718013 10.916274999999999 74.421581 0 0 0
856 2 6 1.05 10.681178 10.879439999999999 72.33841699999998 0 0 0
143 2 7 1.575 0.08117799999999864 4.51944 76.578417 0 0 0
142 0 8 -1.05 0.04434199999999855 2.4362749999999993 76.615252 0 0 0
127 0 9 -0.975 0.19170867650487022 6.535339246835264 76.35476670580186 0 0 0
146 0 9 -0.975 2.0906769562976204 4.628621647015473 76.35928787977888 0 0 0
144 0 3 -0.804 1.8797158491543293 6.332636639200088 78.47041206407087 0 0 0
139 0 3 -0.804 0.38121183673041836 4.840756878516045 78.4719718637535 0 0 0
147 0 10 0.425 2.6076264922908 4.1111265784908815 77.08982127150911 0 0 0
280 0 2 -0.123 5.371512845139809 9.829406644041956 80.16977788272352 0 0 0
993 1 7 1.575 1.1411779999999991 1.3394399999999997 75.51841699999999 0 1 0
277 2 7 1.575 2.2011779999999996 6.639439999999998 76.578417 0 0 0
285 2 7 1.575 6.441177999999999 2.3994399999999994 76.578417 0 0 0
286 0 8 -1.05 6.478012999999999 4.482605 76.615252 0 0 0
281 0 8 -1.05 4.284343000000001 6.676274999999998 76.615252 0 0 0
272 1 7 1.575 5.381178 5.57944 75.51841699999999 0 0 0
274 0 10 0.425 6.854935556229509 8.350058504295625 77.0854554491476 0 0 0
1171 2 7 1.575 4.321178000000001 0.27943999999999747 76.578417 0 1 0
1166 0 8 -1.05 2.2380129999999996 0.2426039999999965 76.615252 0 1 0
1161 0 9 -0.975 6.331104605293021 0.3793145634973323 76.35561133497436 0 1 0
1184 0 9 -0.975 4.429434174119064 2.2866953779370194 76.35617643756034 0 1 0
1170 0 3 -0.804 6.133449942452384 2.097149834558905 78.46638851773349 0 1 0
1164 0 3 -0.804 4.639062419630666 0.6046895488947258 78.46511910930182 0 1 0
1172 0 10 0.425 3.913153941985925 2.807727196475668 77.08483101569723 0 1 0
291 2 7 1.575 8.561177999999998 4.51944 76.578417 0 0 0
290 0 8 -1.05 8.524341999999999 2.4362749999999993 76.615252 0 0 0
275 0 9 -0.975 8.665537515482368 6.530327279845797 76.3592467565265 0 0 0
294 0 9 -0.975 10.57152030375367 4.624941005685802 76.35906459613061 0 0 0
292 0 3 -0.804 10.374504989808543 6.326062386693875 78.46269875462153 0 0 0
287 0 3 -0.804 8.880244474745464 4.83526305261021 78.46096431394655 0 0 0
295 0 10 0.425 11.094467479758475 4.110785202006103 77.0862179312013 0 0 0
293 0 10 0.425 8.15123997173864 7.053977939690386 77.08628181512759 0 0 0
1141 1 7 1.575 9.621178 1.3394399999999997 75.51841699999999 0 1 0
425 2 7 1.575 10.681178 6.639439999999998 76.578417 0 0 0
1314 0 8 -1.05 10.718013 0.2426039999999965 76.615252 0 1 0
105 1 7 1.575 1.1411779999999991 9.81944 75.51841699999999 0 0 0
586 0 8 -1.05 0.04434199999999855 10.916274999999999 76.615252 0 0 0
591 0 10 0.425 2.6190306539925863 12.583882631699538 77.11643737332649 0 0 0
283 2 7 1.575 4.321178000000001 8.759439999999998 76.578417 0 0 0
278 0 8 -1.05 2.2380129999999996 8.722603999999997 76.615252 0 0 0
273 0 9 -0.975 6.333615572225123 8.861552169364124 76.35504901107825 0 0 0
296 0 9 -0.975 4.437640751301234 10.762558609684858 76.35614518501342 0 0 0
282 0 3 -0.804 6.14386104251672 10.550860756958484 78.46316188524304 0 0 0
276 0 3 -0.804 4.65235358061231 9.057451920683189 78.46168375911043 0 0 0
284 0 10 0.425 3.9103186350675467 11.29375154369146 77.06836383619462 0 0 0
729 2 7 1.575 6.441177999999999 10.879439999999999 76.578417 0 0 0
253 1 7 1.575 9.621178 9.81944 75.51841699999999 0 0 0
734 0 8 -1.05 8.524341999999999 10.916274999999999 76.615252 0 0 0
739 0 10 0.425 11.10390846687821 12.580022626771408 77.09640275165279 0 0 0
426 0 8 -1.05 10.718013 8.722603999999997 76.615252 0 0 0
140 0 1 0.731 1.1331998773669887 5.584761401088961 79.07965211229718 0 0 0
141 0 2 -0.123 1.1424189671798997 5.576969812104108 80.17778066153022 0 0 0
1167 0 1 0.731 5.387681429452572 1.3508165345669354 79.0753554801871 0 1 0
1168 0 2 -0.123 5.392761158243725 1.3457458351367673 80.17337052097949 0 1 0
288 0 1 0.731 9.627864471162528 5.580129433658493 79.07052269609957 0 0 0
289 0 2 -0.123 9.626611463966697 5.579888628804975 80.1691729097372 0 0 0
279 0 1 0.731 5.390595690207137 9.81315086257626 79.07114115438486 0 0 0
1320 0 10 0.425 12.39280785087529 2.8117802677529724 77.08253901839733 0 1 0
432 0 10 0.425 12.390157526630743 11.293120072674842 77.08334802420576 0 0 0
466 0 1 0.731 3.256983938164344 16.18777679918897 57.119673910873594 0 0 0
465 0 2 -0.123 3.2456519977898024 16.20093149574207 56.02046165112433 0 0 0
614 0 1 0.731 11.73329207598972 16.18814686573964 57.12185829237557 0 0 0
613 0 2 -0.123 11.733144711735576 16.18781346626579 56.02257306133559 0 0 0
910 0 1 0.731 3.2650798461767616 24.656768929078904 57.12659204719713 0 0 0
909 0 2 -0.123 3.252191399073755 24.66813712509981 56.02778035526789 0 0 0
604 0 1 0.731 7.499418191060234 20.430463903151665 57.125716782897435 0 0 0
603 0 2 -0.123 7.505191838779945 20.425709155511463 56.025684065329486 0 0 0
1058 0 1 0.731 11.73350329290805 24.669023698082018 57.120165742574734 0 0 0
1057 0 2 -0.123 11.736925972535676 24.66483857869911 56.02012338115311 0 0 0
894 0 3 -0.804 4.016265923805099 25.396276317602396 57.73697560114014 0 0 0
463 2 7 1.575 0.08117799999999864 12.99944 59.618416999999994 0 0 0
446 0 8 -1.05 0.11801299999999859 15.082605000000001 59.581582000000004 0 0 0
467 0 8 -1.05 2.1643429999999997 13.036275 59.581582000000004 0 0 0
464 0 3 -0.804 2.5137463209992688 15.435978746830134 57.72721619844032 0 0 0
600 0 9 -0.975 4.207196807066174 15.233670966159828 59.84495576601901 0 0 0
608 0 9 -0.975 6.548186173237856 12.887558629971815 59.78880160418121 0 0 0
596 2 7 1.575 2.2011779999999996 15.119439999999997 59.618416999999994 0 0 0
620 1 7 1.575 7.5011779999999995 16.17944 60.678416999999996 0 0 0
599 0 10 0.425 4.7350220325943315 14.707986079126051 59.12787278918895 0 0 0
605 0 10 0.425 6.0272815092067615 13.416297051698038 59.08043274084969 0 0 0
598 0 3 -0.804 12.475395709281914 16.93679250183703 57.728386583948144 0 0 0
611 2 7 1.575 8.561177999999998 12.99944 59.618416999999994 0 0 0
594 0 8 -1.05 8.598012999999998 15.082605000000001 59.581582000000004 0 0 0
615 0 8 -1.05 10.644343 13.036275 59.581582000000004 0 0 0
612 0 3 -0.804 10.987143800115788 15.441610481151002 57.73174301135901 0 0 0
744 2 7 1.575 10.681178 15.119439999999997 59.618416999999994 0 0 0
1192 0 9 -0.975 12.67598741939519 23.715442940548748 59.83664574588125 0 0 0
1233 1 7 1.575 11.741178000000001 20.41944 60.678416999999996 0 0 0
450 0 3 -0.804 4.007393722589218 16.93128801556985 57.72971086473726 0 0 0
1188 2 7 1.575 10.681178 23.599439999999998 59.618416999999994 0 0 0
907 2 7 1.575 0.08117799999999864 21.47944 59.618416999999994 0 0 0
890 0 8 -1.05 0.11801299999999859 23.562605 59.581582000000004 0 0 0
911 0 8 -1.05 2.1643429999999997 21.516275 59.581582000000004 0 0 0
908 0 3 -0.804 2.524623685763613 23.906593603790274 57.7378554272026 0 0 0
597 0 9 -0.975 2.311959894193057 17.132917103798203 59.840336225799334 0 0 0
602 2 7 1.575 4.321178000000001 17.23944 59.618416999999994 0 0 0
593 0 8 -1.05 6.404343 17.276275 59.581582000000004 0 0 0
616 0 8 -1.05 4.358013000000001 19.322605 59.581582000000004 0 0 0
601 0 3 -0.804 6.74618474220583 19.690617280991933 57.73614636619246 0 0 0
595 0 10 0.425 1.7950477386754105 17.64386073989033 59.10329003461511 0 0 0
1044 0 9 -0.975 4.21396771860889 23.70862119149386 59.84584419808439 0 0 0
1052 0 9 -0.975 6.541921567533157 21.37790899017082 59.843689464480704 0 0 0
1040 2 7 1.575 2.2011779999999996 23.599439999999998 59.618416999999994 0 0 0
1051 2 7 1.575 6.441177999999999 19.35944 59.618416999999994 0 0 0
1064 1 7 1.575 7.5011779999999995 24.65944 60.678416999999996 0 0 0
1085 1 7 1.575 3.261178 20.41944 60.678416999999996 0 0 0
1043 0 10 0.425 4.7292068576897055 23.19109628573817 59.112908161299444 0 0 0
1053 0 10 0.425 8.973419050204985 18.95073505264001 59.11832466025279 0 0 0
1049 0 10 0.425 6.0313840603085955 21.890286796698398 59.105566256159136 0 0 0
606 0 3 -0.804 8.237341842878855 21.18283092225729 57.73451487713462 0 0 0
1054 0 9 -0.975 8.444474890927621 19.469829408358137 59.83996768472385 0 0 0
1055 2 7 1.575 8.561177999999998 21.47944 59.618416999999994 0 0 0
1038 0 8 -1.05 8.598012999999998 23.562605 59.581582000000004 0 0 0
1059 0 8 -1.05 10.644343 21.516275 59.581582000000004 0 0 0
1056 0 3 -0.804 10.979994901841758 23.926168034828727 57.72510620291519 0 0 0
745 0 9 -0.975 10.783139367597977 17.12995423080205 59.83781250673816 0 0 0
743 0 10 0.425 10.274738146877953 17.649577698397533 59.10505948781813 0 0 0
905 0 10 0.425 0.4935775022212836 18.946087715076274 59.116827986155855 0 0 0
748 0 9 -0.975 12.691237480166565 15.225060454418916 59.83553279773857 0 0 0
1042 0 3 -0.804 12.471442370596609 25.425721925843927 57.72684383726092 0 0 0
473 0 8 -1.05 0.04434199999999855 15.156274999999997 63.89525199999999 0 0 0
486 0 8 -1.05 0.04434199999999855 12.962605 61.701581999999995 0 0 0
489 1 7 1.575 1.1411779999999991 14.05944 62.798417 0 0 0
644 0 8 -1.05 4.358013000000001 13.036275 61.775251999999995 0 0 0
640 0 8 -1.05 2.2380129999999996 12.962605 63.89525199999999 0 0 0
629 0 8 -1.05 4.358013000000001 15.082605000000001 63.82158199999999 0 0 0
617 0 8 -1.05 6.404343 15.082605000000001 61.775251999999995 0 0 0
626 0 8 -1.05 2.2380129999999996 15.156274999999997 61.701581999999995 0 0 0
631 0 8 -1.05 6.404343 13.036275 63.82158199999999 0 0 0
618 2 6 1.05 6.441177999999999 15.119439999999997 63.858416999999996 0 0 0
632 2 7 1.575 6.441177999999999 12.99944 61.73841699999999 0 0 0
628 2 7 1.575 4.321178000000001 15.119439999999997 61.73841699999999 0 0 0
643 2 6 1.05 4.321178000000001 12.99944 63.858416999999996 0 0 0
621 0 8 -1.05 8.524341999999999 15.156274999999997 63.89525199999999 0 0 0
634 0 8 -1.05 8.524341999999999 12.962605 61.701581999999995 0 0 0
637 1 7 1.575 9.621178 14.05944 62.798417 0 0 0
788 0 8 -1.05 10.718013 12.962605 63.89525199999999 0 0 0
774 0 8 -1.05 10.718013 15.156274999999997 61.701581999999995 0 0 0
476 0 8 -1.05 2.1643429999999997 17.276275 63.82158199999999 0 0 0
490 0 8 -1.05 2.1643429999999997 19.322605 61.775251999999995 0 0 0
488 0 8 -1.05 0.11801299999999859 19.322605 63.82158199999999 0 0 0
475 0 8 -1.05 0.11801299999999859 17.276275 61.775251999999995 0 0 0
474 2 6 1.05 0.08117799999999864 17.23944 63.858416999999996 0 0 0
917 0 8 -1.05 0.04434199999999855 23.636274999999998 63.89525199999999 0 0 0
930 0 8 -1.05 0.04434199999999855 21.442605 61.701581999999995 0 0 0