LAMMPS data file via write_data, version 29 Sep 2021, timestep = 919846

1332 atoms
10 atom types
180 bonds
6 bond types
324 angles
6 angle types
0 dihedrals
2 dihedral types
36 impropers
2 improper types

0 25.44 xlo xhi
0 25.44 ylo yhi
35.929417 100.267417 zlo zhi

Masses

1 12.011
2 1.008
3 15.9994
4 15.9994
5 1.008
6 55.845
7 55.845
8 15.9994
9 15.9994
10 1.008

Pair Coeffs # lj/cut/coul/long

1 0.0988 3.31521
2 0.0161 2.4473
3 0.1463 3.04812
4 0.093 3.24287
5 0.0047 0.537925
6 9.0298e-07 4.9062
7 9.0298e-07 4.9062
8 0.1554 3.16554
9 0.1554 3.16554
10 0 0

Bond Coeffs # harmonic

1 361.8 1.105
2 652.57 1.218
3 383.13 1.351
4 563.51 0.973
5 554.135 1
6 0 2.08

Angle Coeffs # harmonic

1 51.617 106.55
2 65.93 123.65
3 65.262 109.49
4 115.745 122.1
5 118.817 130.25
6 30 109.47

Dihedral Coeffs # fourier

1 1 2.3 2 180
2 2 2.3 2 180 1.9 1 0

Improper Coeffs # cvff

1 10.5 -1 2
2 10.5 -1 2

Atoms # full

22 0 1 0.731 3.221745605844132 7.687146040068609 57.1179046913555 0 0 0
21 0 2 -0.123 3.2167729064925026 7.69055338193579 56.019081406733726 0 0 0
1048 0 1 0.731 7.517886192242566 3.424065002739505 57.13557594571068 0 1 0
1047 0 2 -0.123 7.481907731409043 3.457676464653917 56.039241155892725 0 1 0
170 0 1 0.731 11.735806988233252 7.704237304192338 57.10649253919369 0 0 0
169 0 2 -0.123 11.726867604486555 7.718972246106372 56.008619823844484 0 0 0
160 0 1 0.731 7.519563838853857 11.954716064191205 57.11468872464868 0 0 0
159 0 2 -0.123 7.544912315305895 11.934849959107783 56.017886429239645 0 0 0
461 0 10 0.425 0.4900847085839269 10.474923800594546 59.11735951464427 0 0 0
19 2 7 1.575 0.08117799999999864 4.51944 59.618416999999994 0 0 0
2 0 8 -1.05 0.11801299999999859 6.602605 59.581582000000004 0 0 0
23 0 8 -1.05 2.1643429999999997 4.556275 59.581582000000004 0 0 0
20 0 3 -0.804 2.4733043846531837 6.934969085359899 57.71949251566062 0 0 0
789 1 7 1.575 11.741178000000001 11.939440000000001 60.678416999999996 0 0 0
154 0 3 -0.804 12.49087417892587 8.450248881662594 57.70787311690667 0 0 0
156 0 9 -0.975 4.196172240722915 6.75823567470602 59.786072625114535 0 0 0
164 0 9 -0.975 6.578610298421972 4.378628715771178 59.79731665239092 0 0 0
152 2 7 1.575 2.2011779999999996 6.639439999999998 59.618416999999994 0 0 0
163 2 7 1.575 6.441177999999999 2.3994399999999994 59.618416999999994 0 0 0
176 1 7 1.575 7.5011779999999995 7.69944 60.678416999999996 0 0 0
197 1 7 1.575 3.261178 3.45944 60.678416999999996 0 0 0
155 0 10 0.425 4.7343766024829534 6.23176251984899 59.08817609369439 0 0 0
165 0 10 0.425 8.981303766089576 1.9878750665198932 59.081335623038775 0 0 0
161 0 10 0.425 6.036872140058454 4.933058206081579 59.12010109965615 0 0 0
1041 0 9 -0.975 2.311688140173309 0.15885816284869367 59.80147451616966 0 1 0
1046 2 7 1.575 4.321178000000001 0.27943999999999747 59.618416999999994 0 1 0
1037 0 8 -1.05 6.404343 0.3162749999999974 59.581582000000004 0 1 0
1060 0 8 -1.05 4.358013000000001 2.3626049999999985 59.581582000000004 0 1 0
1045 0 3 -0.804 6.787648497095424 2.659179934818393 57.741823264830415 0 1 0
1039 0 10 0.425 1.7859171505893434 0.6969062774957179 59.099341336875405 0 1 0
166 0 9 -0.975 8.484685022414688 2.465722079854727 59.85350854108901 0 0 0
167 2 7 1.575 8.561177999999998 4.51944 59.618416999999994 0 0 0
150 0 8 -1.05 8.598012999999998 6.602605 59.581582000000004 0 0 0
171 0 8 -1.05 10.644343 4.556275 59.581582000000004 0 0 0
168 0 3 -0.804 10.991620339201006 6.943424201432124 57.706352714760854 0 0 0
1050 0 3 -0.804 8.289068776924108 4.142046797171731 57.745029239777594 0 1 0
300 2 7 1.575 10.681178 6.639439999999998 59.618416999999994 0 0 0
345 1 7 1.575 11.741178000000001 3.45944 60.678416999999996 0 0 0
299 0 10 0.425 10.268414635800704 9.182534270128304 59.10553214672942 0 0 0
1189 0 9 -0.975 10.78006590576477 0.1883052076762191 59.86497612212066 0 1 0
1187 0 10 0.425 10.274160268905243 0.6911539861222336 59.109286886424215 0 1 0
6 0 3 -0.804 3.969076908625419 8.437836769447367 57.72413438719194 0 0 0
301 0 9 -0.975 10.776206156138109 8.657070511764847 59.83200949498281 0 0 0
153 0 9 -0.975 2.28156327095118 8.664958433662083 59.83305695627952 0 0 0
158 2 7 1.575 4.321178000000001 8.759439999999998 59.618416999999994 0 0 0
149 0 8 -1.05 6.404343 8.796274999999998 59.581582000000004 0 0 0
172 0 8 -1.05 4.358013000000001 10.842604999999999 59.581582000000004 0 0 0
157 0 3 -0.804 6.754777042266583 11.21580462054995 57.716251120772064 0 0 0
151 0 10 0.425 1.7867199426894211 9.176102226309766 59.08776214731684 0 0 0
607 2 7 1.575 6.441177999999999 10.879439999999999 59.618416999999994 0 0 0
641 1 7 1.575 3.261178 11.939440000000001 60.678416999999996 0 0 0
609 0 10 0.425 8.971366504886904 10.478860641610527 59.10525981045503 0 0 0
610 0 9 -0.975 8.448399733173805 10.98850798246372 59.834491834485725 0 0 0
17 0 10 0.425 0.48485522178417173 2.0019688886052927 59.10304669515136 0 0 0
304 0 9 -0.975 12.67734436737118 6.747801325087086 59.78655894189547 0 0 0
162 0 3 -0.804 8.260155612273048 12.71120818580189 57.71578793167032 0 0 0
29 0 8 -1.05 0.04434199999999855 6.676274999999998 63.89525199999999 0 0 0
42 0 8 -1.05 0.04434199999999855 4.482605 61.701581999999995 0 0 0
43 2 6 1.05 0.08117799999999864 2.3994399999999994 61.73841699999999 0 0 0
45 1 7 1.575 1.1411779999999991 5.57944 62.798417 0 0 0
920 0 8 -1.05 2.1643429999999997 0.3162749999999974 63.82158199999999 0 1 0
934 0 8 -1.05 2.1643429999999997 2.3626049999999985 61.775251999999995 0 1 0
932 0 8 -1.05 0.11801299999999859 2.3626049999999985 63.82158199999999 0 1 0
919 0 8 -1.05 0.11801299999999859 0.3162749999999974 61.775251999999995 0 1 0
918 2 7 1.575 0.08117799999999864 0.27943999999999747 63.858416999999996 0 1 0
200 0 8 -1.05 4.358013000000001 4.556275 61.775251999999995 0 0 0
196 0 8 -1.05 2.2380129999999996 4.482605 63.89525199999999 0 0 0
189 0 8 -1.05 6.478012999999999 2.4362749999999993 61.701581999999995 0 0 0
185 0 8 -1.05 4.358013000000001 6.602605 63.82158199999999 0 0 0
198 0 8 -1.05 4.284343000000001 2.4362749999999993 63.89525199999999 0 0 0
173 0 8 -1.05 6.404343 6.602605 61.775251999999995 0 0 0
182 0 8 -1.05 2.2380129999999996 6.676274999999998 61.701581999999995 0 0 0
187 0 8 -1.05 6.404343 4.556275 63.82158199999999 0 0 0
174 2 6 1.05 6.441177999999999 6.639439999999998 63.858416999999996 0 0 0
195 2 7 1.575 2.2011779999999996 2.3994399999999994 63.858416999999996 0 0 0
188 2 7 1.575 6.441177999999999 4.51944 61.73841699999999 0 0 0
184 2 6 1.05 4.321178000000001 6.639439999999998 61.73841699999999 0 0 0
199 2 6 1.05 4.321178000000001 4.51944 63.858416999999996 0 0 0
1071 0 8 -1.05 4.284343000000001 0.2426039999999965 61.701581999999995 0 1 0
1063 0 8 -1.05 6.478012999999999 0.2426039999999965 63.89525199999999 0 1 0
1069 2 6 1.05 2.2011779999999996 0.27943999999999747 61.73841699999999 0 1 0
1074 1 7 1.575 5.381178 1.3394399999999997 62.798417 0 1 0
177 0 8 -1.05 8.524341999999999 6.676274999999998 63.89525199999999 0 0 0
190 0 8 -1.05 8.524341999999999 4.482605 61.701581999999995 0 0 0
191 2 6 1.05 8.561177999999998 2.3994399999999994 61.73841699999999 0 0 0
193 1 7 1.575 9.621178 5.57944 62.798417 0 0 0
1068 0 8 -1.05 10.644343 0.3162749999999974 63.82158199999999 0 1 0
1082 0 8 -1.05 10.644343 2.3626049999999985 61.775251999999995 0 1 0
1080 0 8 -1.05 8.598012999999998 2.3626049999999985 63.82158199999999 0 1 0
1067 0 8 -1.05 8.598012999999998 0.3162749999999974 61.775251999999995 0 1 0
1066 2 6 1.05 8.561177999999998 0.27943999999999747 63.858416999999996 0 1 0
344 0 8 -1.05 10.718013 4.482605 63.89525199999999 0 0 0
330 0 8 -1.05 10.718013 6.676274999999998 61.701581999999995 0 0 0
343 2 7 1.575 10.681178 2.3994399999999994 63.858416999999996 0 0 0
1217 2 7 1.575 10.681178 0.27943999999999747 61.73841699999999 0 1 0
32 0 8 -1.05 2.1643429999999997 8.796274999999998 63.82158199999999 0 0 0
46 0 8 -1.05 2.1643429999999997 10.842604999999999 61.775251999999995 0 0 0
44 0 8 -1.05 0.11801299999999859 10.842604999999999 63.82158199999999 0 0 0
31 0 8 -1.05 0.11801299999999859 8.796274999999998 61.775251999999995 0 0 0
30 2 7 1.575 0.08117799999999864 8.759439999999998 63.858416999999996 0 0 0
487 2 7 1.575 0.08117799999999864 10.879439999999999 61.73841699999999 0 0 0
183 0 8 -1.05 4.284343000000001 8.722603999999997 61.701581999999995 0 0 0
175 0 8 -1.05 6.478012999999999 8.722603999999997 63.89525199999999 0 0 0
181 2 6 1.05 2.2011779999999996 8.759439999999998 61.73841699999999 0 0 0
186 1 7 1.575 5.381178 9.81944 62.798417 0 0 0
633 0 8 -1.05 6.478012999999999 10.916274999999999 61.701581999999995 0 0 0
642 0 8 -1.05 4.284343000000001 10.916274999999999 63.89525199999999 0 0 0
639 2 7 1.575 2.2011779999999996 10.879439999999999 63.858416999999996 0 0 0
180 0 8 -1.05 10.644343 8.796274999999998 63.82158199999999 0 0 0
194 0 8 -1.05 10.644343 10.842604999999999 61.775251999999995 0 0 0
192 0 8 -1.05 8.598012999999998 10.842604999999999 63.82158199999999 0 0 0
179 0 8 -1.05 8.598012999999998 8.796274999999998 61.775251999999995 0 0 0
178 2 7 1.575 8.561177999999998 8.759439999999998 63.858416999999996 0 0 0
635 2 7 1.575 8.561177999999998 10.879439999999999 61.73841699999999 0 0 0
329 2 7 1.575 10.681178 8.759439999999998 61.73841699999999 0 0 0
787 2 7 1.575 10.681178 10.879439999999999 63.858416999999996 0 0 0
91 0 8 -1.05 0.04434199999999855 4.482605 70.18158199999998 0 0 0
90 0 8 -1.05 0.04434199999999855 2.4362749999999993 68.135252 0 0 0
68 2 6 1.05 0.08117799999999864 4.51944 68.09841699999998 0 0 0
92 2 7 1.575 0.08117799999999864 2.3994399999999994 70.21841699999999 0 0 0
93 1 7 1.575 1.1411779999999991 5.57944 71.27841699999999 0 0 0
58 0 8 -1.05 0.11801299999999859 6.602605 68.06158199999999 0 0 0
69 0 8 -1.05 0.11801299999999859 4.556275 66.01525199999999 0 0 0
70 0 8 -1.05 2.1643429999999997 4.556275 68.06158199999999 0 0 0
60 0 8 -1.05 2.1643429999999997 6.602605 66.01525199999999 0 0 0
57 2 6 1.05 0.08117799999999864 6.639439999999998 65.978417 0 0 0
982 0 8 -1.05 2.1643429999999997 2.3626049999999985 70.25525199999998 0 1 0
967 0 8 -1.05 0.11801299999999859 0.3162749999999974 70.25525199999998 0 1 0
944 0 8 -1.05 0.04434199999999855 0.2426039999999965 65.94158099999999 0 1 0
947 1 7 1.575 1.1411779999999991 1.3394399999999997 67.038417 0 1 0
244 0 8 -1.05 4.358013000000001 4.556275 70.25525199999998 0 0 0
231 0 8 -1.05 4.284343000000001 6.676274999999998 68.135252 0 0 0
236 0 8 -1.05 6.478012999999999 2.4362749999999993 70.18158199999998 0 0 0
237 0 8 -1.05 6.478012999999999 4.482605 68.135252 0 0 0
225 0 8 -1.05 6.404343 6.602605 70.25525199999998 0 0 0
229 0 8 -1.05 2.2380129999999996 6.676274999999998 70.18158199999998 0 0 0
235 2 7 1.575 6.441177999999999 4.51944 70.21841699999999 0 0 0
209 2 6 1.05 2.2011779999999996 6.639439999999998 68.09841699999998 0 0 0
233 2 7 1.575 4.321178000000001 6.639439999999998 70.21841699999999 0 0 0
214 2 7 1.575 6.441177999999999 2.3994399999999994 68.09841699999998 0 0 0
226 1 7 1.575 7.5011779999999995 7.69944 69.158417 0 0 0
243 1 7 1.575 3.261178 3.45944 69.158417 0 0 0
220 0 8 -1.05 2.2380129999999996 2.4362749999999993 65.94158099999999 0 0 0
203 0 8 -1.05 6.478012999999999 6.676274999999998 65.94158099999999 0 0 0
221 0 8 -1.05 4.284343000000001 4.482605 65.94158099999999 0 0 0
222 2 6 1.05 4.321178000000001 2.3994399999999994 65.978417 0 0 0
219 2 7 1.575 2.2011779999999996 4.51944 65.978417 0 0 0
224 1 7 1.575 5.381178 5.57944 67.038417 0 0 0
210 1 7 1.575 3.261178 7.69944 64.91841699999998 0 0 0
215 1 7 1.575 7.5011779999999995 3.45944 64.91841699999998 0 0 0
1120 0 8 -1.05 4.284343000000001 0.2426039999999965 70.18158199999998 0 1 0
1118 0 8 -1.05 2.2380129999999996 0.2426039999999965 68.135252 0 1 0
1099 2 6 1.05 4.321178000000001 0.27943999999999747 68.09841699999998 0 1 0
1116 2 6 1.05 2.2011779999999996 0.27943999999999747 70.21841699999999 0 1 0
1122 1 7 1.575 5.381178 1.3394399999999997 71.27841699999999 0 1 0
1101 0 8 -1.05 6.404343 2.3626049999999985 66.01525199999999 0 1 0
1089 0 8 -1.05 6.404343 0.3162749999999974 68.06158199999999 0 1 0
1100 0 8 -1.05 4.358013000000001 0.3162749999999974 66.01525199999999 0 1 0
1111 0 8 -1.05 4.358013000000001 2.3626049999999985 68.06158199999999 0 1 0
1090 2 7 1.575 6.441177999999999 0.27943999999999747 65.978417 0 1 0
239 0 8 -1.05 8.524341999999999 4.482605 70.18158199999998 0 0 0
238 0 8 -1.05 8.524341999999999 2.4362749999999993 68.135252 0 0 0
216 2 7 1.575 8.561177999999998 4.51944 68.09841699999998 0 0 0
240 2 7 1.575 8.561177999999998 2.3994399999999994 70.21841699999999 0 0 0
241 1 7 1.575 9.621178 5.57944 71.27841699999999 0 0 0
206 0 8 -1.05 8.598012999999998 6.602605 68.06158199999999 0 0 0
217 0 8 -1.05 8.598012999999998 4.556275 66.01525199999999 0 0 0
218 0 8 -1.05 10.644343 4.556275 68.06158199999999 0 0 0
208 0 8 -1.05 10.644343 6.602605 66.01525199999999 0 0 0
205 2 6 1.05 8.561177999999998 6.639439999999998 65.978417 0 0 0
1130 0 8 -1.05 10.644343 2.3626049999999985 70.25525199999998 0 1 0
1115 0 8 -1.05 8.598012999999998 0.3162749999999974 70.25525199999998 0 1 0
1092 0 8 -1.05 8.524341999999999 0.2426039999999965 65.94158099999999 0 1 0
1095 1 7 1.575 9.621178 1.3394399999999997 67.038417 0 1 0
377 0 8 -1.05 10.718013 6.676274999999998 70.18158199999998 0 0 0
357 2 7 1.575 10.681178 6.639439999999998 68.09841699999998 0 0 0
391 1 7 1.575 11.741178000000001 3.45944 69.158417 0 0 0
368 0 8 -1.05 10.718013 2.4362749999999993 65.94158099999999 0 0 0
367 2 7 1.575 10.681178 4.51944 65.978417 0 0 0
358 1 7 1.575 11.741178000000001 7.69944 64.91841699999998 0 0 0
1266 0 8 -1.05 10.718013 0.2426039999999965 68.135252 0 1 0
1264 2 7 1.575 10.681178 0.27943999999999747 70.21841699999999 0 1 0
94 0 8 -1.05 2.1643429999999997 10.842604999999999 70.25525199999998 0 0 0
79 0 8 -1.05 0.11801299999999859 8.796274999999998 70.25525199999998 0 0 0
56 0 8 -1.05 0.04434199999999855 8.722603999999997 65.94158099999999 0 0 0
59 1 7 1.575 1.1411779999999991 9.81944 67.038417 0 0 0
534 0 8 -1.05 0.04434199999999855 10.916274999999999 68.135252 0 0 0
536 2 7 1.575 0.08117799999999864 10.879439999999999 70.21841699999999 0 0 0
232 0 8 -1.05 4.284343000000001 8.722603999999997 70.18158199999998 0 0 0
230 0 8 -1.05 2.2380129999999996 8.722603999999997 68.135252 0 0 0
211 2 7 1.575 4.321178000000001 8.759439999999998 68.09841699999998 0 0 0
228 2 7 1.575 2.2011779999999996 8.759439999999998 70.21841699999999 0 0 0
234 1 7 1.575 5.381178 9.81944 71.27841699999999 0 0 0
213 0 8 -1.05 6.404343 10.842604999999999 66.01525199999999 0 0 0
201 0 8 -1.05 6.404343 8.796274999999998 68.06158199999999 0 0 0
212 0 8 -1.05 4.358013000000001 8.796274999999998 66.01525199999999 0 0 0
223 0 8 -1.05 4.358013000000001 10.842604999999999 68.06158199999999 0 0 0
202 2 6 1.05 6.441177999999999 8.759439999999998 65.978417 0 0 0
680 0 8 -1.05 6.478012999999999 10.916274999999999 70.18158199999998 0 0 0
658 2 6 1.05 6.441177999999999 10.879439999999999 68.09841699999998 0 0 0
687 1 7 1.575 3.261178 11.939440000000001 69.158417 0 0 0
664 0 8 -1.05 2.2380129999999996 10.916274999999999 65.94158099999999 0 0 0
666 2 7 1.575 4.321178000000001 10.879439999999999 65.978417 0 0 0
659 1 7 1.575 7.5011779999999995 11.939440000000001 64.91841699999998 0 0 0
242 0 8 -1.05 10.644343 10.842604999999999 70.25525199999998 0 0 0
227 0 8 -1.05 8.598012999999998 8.796274999999998 70.25525199999998 0 0 0
204 0 8 -1.05 8.524341999999999 8.722603999999997 65.94158099999999 0 0 0
207 1 7 1.575 9.621178 9.81944 67.038417 0 0 0
682 0 8 -1.05 8.524341999999999 10.916274999999999 68.135252 0 0 0
684 2 6 1.05 8.561177999999998 10.879439999999999 70.21841699999999 0 0 0
378 0 8 -1.05 10.718013 8.722603999999997 68.135252 0 0 0
376 2 7 1.575 10.681178 8.759439999999998 70.21841699999999 0 0 0
835 1 7 1.575 11.741178000000001 11.939440000000001 69.158417 0 0 0
812 0 8 -1.05 10.718013 10.916274999999999 65.94158099999999 0 0 0
115 0 8 -1.05 0.11801299999999859 4.556275 74.49525199999998 0 0 0
101 0 8 -1.05 0.04434199999999855 6.676274999999998 72.37525199999999 0 0 0
106 0 8 -1.05 2.1643429999999997 6.602605 74.49525199999998 0 0 0
103 2 7 1.575 0.08117799999999864 6.639439999999998 74.458417 0 0 0
990 0 8 -1.05 0.04434199999999855 0.2426039999999965 74.421581 0 1 0
995 0 8 -1.05 2.1643429999999997 0.3162749999999974 72.30158199999998 0 1 0
1002 0 8 -1.05 0.11801299999999859 2.3626049999999985 72.30158199999998 0 1 0
992 2 6 1.05 0.08117799999999864 0.27943999999999747 72.33841699999998 0 1 0
267 0 8 -1.05 2.2380129999999996 4.482605 72.37525199999999 0 0 0
257 0 8 -1.05 4.358013000000001 6.602605 72.30158199999998 0 0 0
266 0 8 -1.05 2.2380129999999996 2.4362749999999993 74.421581 0 0 0
268 0 8 -1.05 4.284343000000001 2.4362749999999993 72.37525199999999 0 0 0
247 0 8 -1.05 6.478012999999999 6.676274999999998 74.421581 0 0 0
269 0 8 -1.05 4.284343000000001 4.482605 74.421581 0 0 0
260 0 8 -1.05 6.404343 4.556275 72.30158199999998 0 0 0
245 2 6 1.05 6.441177999999999 6.639439999999998 72.33841699999998 0 0 0
264 2 6 1.05 2.2011779999999996 2.3994399999999994 72.33841699999998 0 0 0
270 2 7 1.575 4.321178000000001 2.3994399999999994 74.458417 0 0 0
265 2 7 1.575 2.2011779999999996 4.51944 74.458417 0 0 0
271 2 7 1.575 4.321178000000001 4.51944 72.33841699999998 0 0 0
256 1 7 1.575 3.261178 7.69944 73.398417 0 0 0
261 1 7 1.575 7.5011779999999995 3.45944 73.398417 0 0 0
1147 0 8 -1.05 6.404343 2.3626049999999985 74.49525199999998 0 1 0
1146 0 8 -1.05 4.358013000000001 0.3162749999999974 74.49525199999998 0 1 0
1136 0 8 -1.05 6.478012999999999 0.2426039999999965 72.37525199999999 0 1 0
1134 2 7 1.575 6.441177999999999 0.27943999999999747 74.458417 0 1 0
263 0 8 -1.05 8.598012999999998 4.556275 74.49525199999998 0 0 0
249 0 8 -1.05 8.524341999999999 6.676274999999998 72.37525199999999 0 0 0
254 0 8 -1.05 10.644343 6.602605 74.49525199999998 0 0 0
251 2 6 1.05 8.561177999999998 6.639439999999998 74.458417 0 0 0
1138 0 8 -1.05 8.524341999999999 0.2426039999999965 74.421581 0 1 0
1143 0 8 -1.05 10.644343 0.3162749999999974 72.30158199999998 0 1 0
1150 0 8 -1.05 8.598012999999998 2.3626049999999985 72.30158199999998 0 1 0
1140 2 6 1.05 8.561177999999998 0.27943999999999747 72.33841699999998 0 1 0
415 0 8 -1.05 10.718013 4.482605 72.37525199999999 0 0 0
414 0 8 -1.05 10.718013 2.4362749999999993 74.421581 0 0 0
412 2 6 1.05 10.681178 2.3994399999999994 72.33841699999998 0 0 0
413 2 7 1.575 10.681178 4.51944 74.458417 0 0 0
404 1 7 1.575 11.741178000000001 7.69944 73.398417 0 0 0
102 0 8 -1.05 0.04434199999999855 8.722603999999997 74.421581 0 0 0
107 0 8 -1.05 2.1643429999999997 8.796274999999998 72.30158199999998 0 0 0
114 0 8 -1.05 0.11801299999999859 10.842604999999999 72.30158199999998 0 0 0
104 2 6 1.05 0.08117799999999864 8.759439999999998 72.33841699999998 0 0 0
259 0 8 -1.05 6.404343 10.842604999999999 74.49525199999998 0 0 0
258 0 8 -1.05 4.358013000000001 8.796274999999998 74.49525199999998 0 0 0
248 0 8 -1.05 6.478012999999999 8.722603999999997 72.37525199999999 0 0 0
246 2 6 1.05 6.441177999999999 8.759439999999998 74.458417 0 0 0
710 0 8 -1.05 2.2380129999999996 10.916274999999999 74.421581 0 0 0
712 0 8 -1.05 4.284343000000001 10.916274999999999 72.37525199999999 0 0 0
708 2 7 1.575 2.2011779999999996 10.879439999999999 72.33841699999998 0 0 0
714 2 7 1.575 4.321178000000001 10.879439999999999 74.458417 0 0 0
705 1 7 1.575 7.5011779999999995 11.939440000000001 73.398417 0 0 0
250 0 8 -1.05 8.524341999999999 8.722603999999997 74.421581 0 0 0
255 0 8 -1.05 10.644343 8.796274999999998 72.30158199999998 0 0 0
262 0 8 -1.05 8.598012999999998 10.842604999999999 72.30158199999998 0 0 0
252 2 7 1.575 8.561177999999998 8.759439999999998 72.33841699999998 0 0 0
858 0 8 -1.05 10.718013 10.916274999999999 74.421581 0 0 0
856 2 7 1.575 10.681178 10.879439999999999 72.33841699999998 0 0 0
143 2 7 1.575 0.08117799999999864 4.51944 76.578417 0 0 0
142 0 8 -1.05 0.04434199999999855 2.4362749999999993 76.615252 0 0 0
127 0 9 -0.975 0.1776822351353883 6.554715412878962 76.34510479176188 0 0 0
146 0 9 -0.975 2.090084017737984 4.63939634580235 76.40128330781376 0 0 0
144 0 3 -0.804 1.8806903453847321 6.354601896908463 78.4661544036706 0 0 0
139 0 3 -0.804 0.3758220103410031 4.871078885487324 78.46178560791459 0 0 0
147 0 10 0.425 2.5957574714749105 4.115270293520899 77.12944591790104 0 0 0
280 0 2 -0.123 5.376154843287418 9.812991193633028 80.17104659054925 0 0 0
993 1 7 1.575 1.1411779999999991 1.3394399999999997 75.51841699999999 0 1 0
277 2 7 1.575 2.2011779999999996 6.639439999999998 76.578417 0 0 0
285 2 7 1.575 6.441177999999999 2.3994399999999994 76.578417 0 0 0
286 0 8 -1.05 6.478012999999999 4.482605 76.615252 0 0 0
281 0 8 -1.05 4.284343000000001 6.676274999999998 76.615252 0 0 0
272 1 7 1.575 5.381178 5.57944 75.51841699999999 0 0 0
274 0 10 0.425 6.838883626971929 8.36216671022545 77.10587430786671 0 0 0
1171 2 7 1.575 4.321178000000001 0.27943999999999747 76.578417 0 1 0
1166 0 8 -1.05 2.2380129999999996 0.2426039999999965 76.615252 0 1 0
1161 0 9 -0.975 6.3495599066292066 0.4019027050285897 76.34604047603415 0 1 0
1184 0 9 -0.975 4.44661162104384 2.29505756340522 76.33755764851789 0 1 0
1170 0 3 -0.804 6.1519030416776035 2.1194192773489187 78.46085204737875 0 1 0
1164 0 3 -0.804 4.640003345095382 0.6496811431817294 78.44880931978926 0 1 0
1172 0 10 0.425 3.908806596354903 2.805660492578459 77.06416934934904 0 1 0
291 2 7 1.575 8.561177999999998 4.51944 76.578417 0 0 0
290 0 8 -1.05 8.524341999999999 2.4362749999999993 76.615252 0 0 0
275 0 9 -0.975 8.676750238587097 6.524293525762948 76.34364801806855 0 0 0
294 0 9 -0.975 10.583161636047768 4.621938101970669 76.34643248421412 0 0 0
292 0 3 -0.804 10.368530665187878 6.333993574681296 78.4543722938752 0 0 0
287 0 3 -0.804 8.874179423486211 4.846931756661377 78.4523742288095 0 0 0
295 0 10 0.425 11.079416028882054 4.11619772877013 77.10403154028191 0 0 0
293 0 10 0.425 8.15325676602141 7.048288366068084 77.07064882925569 0 0 0
1141 1 7 1.575 9.621178 1.3394399999999997 75.51841699999999 0 1 0
425 2 7 1.575 10.681178 6.639439999999998 76.578417 0 0 0
1314 0 8 -1.05 10.718013 0.2426039999999965 76.615252 0 1 0
105 1 7 1.575 1.1411779999999991 9.81944 75.51841699999999 0 0 0
586 0 8 -1.05 0.04434199999999855 10.916274999999999 76.615252 0 0 0
591 0 10 0.425 2.614809068653054 12.593092371902694 77.08887035313006 0 0 0
283 2 7 1.575 4.321178000000001 8.759439999999998 76.578417 0 0 0
278 0 8 -1.05 2.2380129999999996 8.722603999999997 76.615252 0 0 0
273 0 9 -0.975 6.330418508249045 8.862041899605984 76.35730111833963 0 0 0
296 0 9 -0.975 4.420480133050038 10.764125226619052 76.34794590407051 0 0 0
282 0 3 -0.804 6.117236066311967 10.557900291136527 78.46082930487933 0 0 0
276 0 3 -0.804 4.617126919118666 9.074033250301953 78.462874556603 0 0 0
284 0 10 0.425 3.9132430134289535 11.291463578539492 77.08250269328704 0 0 0
729 2 7 1.575 6.441177999999999 10.879439999999999 76.578417 0 0 0
253 1 7 1.575 9.621178 9.81944 75.51841699999999 0 0 0
734 0 8 -1.05 8.524341999999999 10.916274999999999 76.615252 0 0 0
739 0 10 0.425 11.107735494061393 12.58907779878428 77.10626700230996 0 0 0
426 0 8 -1.05 10.718013 8.722603999999997 76.615252 0 0 0
140 0 1 0.731 1.1362730510283905 5.600893523124293 79.07295491441798 0 0 0
141 0 2 -0.123 1.1575584681907118 5.571153147240983 80.17042428279377 0 0 0
1167 0 1 0.731 5.398091624829174 1.3745339317303744 79.06727176761518 0 1 0
1168 0 2 -0.123 5.4112099819841974 1.3468191913647491 80.16460286283382 0 1 0
288 0 1 0.731 9.615198651256561 5.596387697158212 79.06677686588253 0 0 0
289 0 2 -0.123 9.611597805105289 5.600879087652148 80.16399919941725 0 0 0
279 0 1 0.731 5.366703964310052 9.818446475329042 79.07302905169212 0 0 0
1320 0 10 0.425 12.39081360916062 2.8103454311273115 77.09207662474498 0 1 0
432 0 10 0.425 12.402593020918326 11.291235298027377 77.06882975889103 0 0 0
466 0 1 0.731 3.256814136093417 16.18988151046502 57.112733743544034 0 0 0
465 0 2 -0.123 3.276121621023052 16.180021534439845 56.012339407174366 0 0 0
614 0 1 0.731 11.745415626479 16.204520020056812 57.1095747389968 0 0 0
613 0 2 -0.123 11.766531055434598 16.181243455801482 56.0097769138921 0 0 0
910 0 1 0.731 3.249608292963117 24.64760159643651 57.1278840178369 0 0 0
909 0 2 -0.123 3.2224896029449326 24.669470557738556 56.029040871058875 0 0 0
604 0 1 0.731 7.496448097131796 20.464137663848923 57.117070155795574 0 0 0
603 0 2 -0.123 7.540814816277613 20.40998585511635 56.01822697021427 0 0 0
1058 0 1 0.731 11.730004921163529 24.666994867372722 57.138250819132836 0 0 0
1057 0 2 -0.123 11.758137336358603 24.634065067160062 56.04237550603813 0 0 0
1042 0 3 -0.804 12.465694750253775 25.419218968723595 57.752131726263684 0 0 0
463 2 7 1.575 0.08117799999999864 12.99944 59.618416999999994 0 0 0
446 0 8 -1.05 0.11801299999999859 15.082605000000001 59.581582000000004 0 0 0
467 0 8 -1.05 2.1643429999999997 13.036275 59.581582000000004 0 0 0
464 0 3 -0.804 2.505247635120992 15.443034166541475 57.71781986036041 0 0 0
600 0 9 -0.975 4.218911905140831 15.203395743709493 59.83187592275645 0 0 0
608 0 9 -0.975 6.542971386349919 12.886101395237 59.83502355065808 0 0 0
596 2 7 1.575 2.2011779999999996 15.119439999999997 59.618416999999994 0 0 0
620 1 7 1.575 7.5011779999999995 16.17944 60.678416999999996 0 0 0
599 0 10 0.425 4.75301486980552 14.696330865223192 59.110541280006274 0 0 0
605 0 10 0.425 6.046920038651244 13.40950926141017 59.09480336028557 0 0 0
598 0 3 -0.804 12.489144047822139 16.963605579778275 57.70900138538334 0 0 0
611 2 7 1.575 8.561177999999998 12.99944 59.618416999999994 0 0 0
594 0 8 -1.05 8.598012999999998 15.082605000000001 59.581582000000004 0 0 0
615 0 8 -1.05 10.644343 13.036275 59.581582000000004 0 0 0
612 0 3 -0.804 10.989491165935428 15.459152841719916 57.71174704999253 0 0 0
744 2 7 1.575 10.681178 15.119439999999997 59.618416999999994 0 0 0
1192 0 9 -0.975 12.681282085479141 23.731217000603177 59.85937639632769 0 0 0
1233 1 7 1.575 11.741178000000001 20.41944 60.678416999999996 0 0 0
450 0 3 -0.804 3.9939767360254894 16.94714948741421 57.72014502241262 0 0 0
1188 2 7 1.575 10.681178 23.599439999999998 59.618416999999994 0 0 0
907 2 7 1.575 0.08117799999999864 21.47944 59.618416999999994 0 0 0
890 0 8 -1.05 0.11801299999999859 23.562605 59.581582000000004 0 0 0
911 0 8 -1.05 2.1643429999999997 21.516275 59.581582000000004 0 0 0
908 0 3 -0.804 2.502769100745013 23.901645587875805 57.73800038220585 0 0 0
597 0 9 -0.975 2.3060133830265146 17.124245466795454 59.787783233817585 0 0 0
602 2 7 1.575 4.321178000000001 17.23944 59.618416999999994 0 0 0
593 0 8 -1.05 6.404343 17.276275 59.581582000000004 0 0 0
616 0 8 -1.05 4.358013000000001 19.322605 59.581582000000004 0 0 0
601 0 3 -0.804 6.728452442720976 19.74091201070463 57.726387283451864 0 0 0
595 0 10 0.425 1.7838215613551929 17.66011485554092 59.08716461289429 0 0 0
1044 0 9 -0.975 4.224717034922856 23.703444184456412 59.84623743203577 0 0 0
1052 0 9 -0.975 6.542684930089918 21.416051231997926 59.797388769993105 0 0 0
1040 2 7 1.575 2.2011779999999996 23.599439999999998 59.618416999999994 0 0 0
1051 2 7 1.575 6.441177999999999 19.35944 59.618416999999994 0 0 0
1064 1 7 1.575 7.5011779999999995 24.65944 60.678416999999996 0 0 0
1085 1 7 1.575 3.261178 20.41944 60.678416999999996 0 0 0
1043 0 10 0.425 4.7307188786227385 23.172601970869838 59.11562504093299 0 0 0
1053 0 10 0.425 8.982548251019958 18.931385896745407 59.108171895628814 0 0 0
1049 0 10 0.425 6.009414269811057 21.90054548498497 59.0676651782397 0 0 0
606 0 3 -0.804 8.220570744704915 21.242781157994134 57.71799990892159 0 0 0
1054 0 9 -0.975 8.45172359599063 19.492812438807324 59.78282151473754 0 0 0
1055 2 7 1.575 8.561177999999998 21.47944 59.618416999999994 0 0 0
1038 0 8 -1.05 8.598012999999998 23.562605 59.581582000000004 0 0 0
1059 0 8 -1.05 10.644343 21.516275 59.581582000000004 0 0 0
1056 0 3 -0.804 10.962802470889702 23.950020780429394 57.752347321305415 0 0 0
745 0 9 -0.975 10.80440191645106 17.127366153773036 59.78779773716195 0 0 0
743 0 10 0.425 10.265392021405457 17.64768162244957 59.085217308040754 0 0 0
905 0 10 0.425 0.4810598354474162 18.960409780964305 59.125871075685836 0 0 0
748 0 9 -0.975 12.700515095347958 15.225765969227558 59.82429536967512 0 0 0
894 0 3 -0.804 4.019211706817431 25.37175024717634 57.735359204449274 0 0 0
473 0 8 -1.05 0.04434199999999855 15.156274999999997 63.89525199999999 0 0 0
486 0 8 -1.05 0.04434199999999855 12.962605 61.701581999999995 0 0 0
489 1 7 1.575 1.1411779999999991 14.05944 62.798417 0 0 0
644 0 8 -1.05 4.358013000000001 13.036275 61.775251999999995 0 0 0
640 0 8 -1.05 2.2380129999999996 12.962605 63.89525199999999 0 0 0
629 0 8 -1.05 4.358013000000001 15.082605000000001 63.82158199999999 0 0 0
617 0 8 -1.05 6.404343 15.082605000000001 61.775251999999995 0 0 0
626 0 8 -1.05 2.2380129999999996 15.156274999999997 61.701581999999995 0 0 0
631 0 8 -1.05 6.404343 13.036275 63.82158199999999 0 0 0
618 2 7 1.575 6.441177999999999 15.119439999999997 63.858416999999996 0 0 0
632 2 7 1.575 6.441177999999999 12.99944 61.73841699999999 0 0 0
628 2 6 1.05 4.321178000000001 15.119439999999997 61.73841699999999 0 0 0
643 2 6 1.05 4.321178000000001 12.99944 63.858416999999996 0 0 0
621 0 8 -1.05 8.524341999999999 15.156274999999997 63.89525199999999 0 0 0
634 0 8 -1.05 8.524341999999999 12.962605 61.701581999999995 0 0 0
637 1 7 1.575 9.621178 14.05944 62.798417 0 0 0
788 0 8 -1.05 10.718013 12.962605 63.89525199999999 0 0 0
774 0 8 -1.05 10.718013 15.156274999999997 61.701581999999995 0 0 0
476 0 8 -1.05 2.1643429999999997 17.276275 63.82158199999999 0 0 0
490 0 8 -1.05 2.1643429999999997 19.322605 61.775251999999995 0 0 0
488 0 8 -1.05 0.11801299999999859 19.322605 63.82158199999999 0 0 0
475 0 8 -1.05 0.11801299999999859 17.276275 61.775251999999995 0 0 0
474 2 6 1.05 0.08117799999999864 17.23944 63.858416999999996 0 0 0
917 0 8 -1.05 0.04434199999999855 23.636274999999998 63.89525199999999 0 0 0
930 0 8 -1.05 0.04434199999999855 21.442605 61.701581999999995 0 0 0