LAMMPS data file via write_data, version 29 Sep 2021, timestep = 315332

1332 atoms
10 atom types
180 bonds
6 bond types
324 angles
6 angle types
0 dihedrals
2 dihedral types
36 impropers
2 improper types

0 25.44 xlo xhi
0 25.44 ylo yhi
35.929417 100.267417 zlo zhi

Masses

1 12.011
2 1.008
3 15.9994
4 15.9994
5 1.008
6 55.845
7 55.845
8 15.9994
9 15.9994
10 1.008

Pair Coeffs # lj/cut/coul/long

1 0.0988 3.31521
2 0.0161 2.4473
3 0.1463 3.04812
4 0.093 3.24287
5 0.0047 0.537925
6 9.0298e-07 4.9062
7 9.0298e-07 4.9062
8 0.1554 3.16554
9 0.1554 3.16554
10 0 0

Bond Coeffs # harmonic

1 361.8 1.105
2 652.57 1.218
3 383.13 1.351
4 563.51 0.973
5 554.135 1
6 0 2.08

Angle Coeffs # harmonic

1 51.617 106.55
2 65.93 123.65
3 65.262 109.49
4 115.745 122.1
5 118.817 130.25
6 30 109.47

Dihedral Coeffs # fourier

1 1 2.3 2 180
2 2 2.3 2 180 1.9 1 0

Improper Coeffs # cvff

1 10.5 -1 2
2 10.5 -1 2

Atoms # full

22 0 1 0.731 3.350912059729644 7.7774062179681405 57.13162851489306 0 0 0
21 0 2 -0.123 3.30860756439951 7.813202890468135 56.03610298872682 0 0 0
1048 0 1 0.731 7.631462031063327 3.5968983845581146 57.090322899951765 0 1 0
1047 0 2 -0.123 7.6332058236428315 3.642652273342365 55.99179692787013 0 1 0
170 0 1 0.731 11.738152894227023 7.773259652868947 57.14602960910838 0 0 0
169 0 2 -0.123 11.837256636280387 7.674527093582412 56.057406749803604 0 0 0
160 0 1 0.731 7.5406767407373 11.947352193013613 57.14149309917992 0 0 0
159 0 2 -0.123 7.5179214855415815 11.96346977611531 56.045615644580984 0 0 0
461 0 10 0.425 0.48558897207390644 10.452355498051546 59.121820611336666 0 0 0
19 2 7 1.575 0.08117799999999864 4.51944 59.618416999999994 0 0 0
2 0 8 -1.05 0.11801299999999859 6.602605 59.581582000000004 0 0 0
23 0 8 -1.05 2.1643429999999997 4.556275 59.581582000000004 0 0 0
20 0 3 -0.804 2.6335893585279613 7.012186984210708 57.74517643844835 0 0 0
789 1 7 1.575 11.741178000000001 11.939440000000001 60.678416999999996 0 0 0
154 0 3 -0.804 12.417503870204193 8.583454143781498 57.75170186337502 0 0 0
156 0 9 -0.975 4.24777785598846 6.7483940376512885 59.85802823556003 0 0 0
164 0 9 -0.975 6.5810987501580085 4.514970914002365 59.85563690310065 0 0 0
152 2 7 1.575 2.2011779999999996 6.639439999999998 59.618416999999994 0 0 0
163 2 7 1.575 6.441177999999999 2.3994399999999994 59.618416999999994 0 0 0
176 1 7 1.575 7.5011779999999995 7.69944 60.678416999999996 0 0 0
197 1 7 1.575 3.261178 3.45944 60.678416999999996 0 0 0
155 0 10 0.425 4.713407274334492 6.204788826257998 59.10755746605451 0 0 0
165 0 10 0.425 8.953848628125447 1.9910000965459123 59.08689250160705 0 0 0
161 0 10 0.425 6.018159962930204 4.913459186918435 59.085078102198736 0 0 0
1041 0 9 -0.975 2.321252658960138 0.16108937279131927 59.781748062872666 0 1 0
1046 2 6 1.05 4.321178000000001 0.27943999999999747 59.618416999999994 0 1 0
1037 0 8 -1.05 6.404343 0.3162749999999974 59.581582000000004 0 1 0
1060 0 8 -1.05 4.358013000000001 2.3626049999999985 59.581582000000004 0 1 0
1045 0 3 -0.804 6.922478685367046 2.7956115193028035 57.65470544689797 0 1 0
1039 0 10 0.425 1.7565168399423687 0.7066647820667853 59.11690028168661 0 1 0
166 0 9 -0.975 8.54839531459253 2.5500475292756213 59.85452737435308 0 0 0
167 2 7 1.575 8.561177999999998 4.51944 59.618416999999994 0 0 0
150 0 8 -1.05 8.598012999999998 6.602605 59.581582000000004 0 0 0
171 0 8 -1.05 10.644343 4.556275 59.581582000000004 0 0 0
168 0 3 -0.804 10.966295800594219 7.059793440414297 57.759726679158156 0 0 0
1050 0 3 -0.804 8.342081894690798 4.358577185663849 57.72620209082579 0 1 0
300 2 7 1.575 10.681178 6.639439999999998 59.618416999999994 0 0 0
345 1 7 1.575 11.741178000000001 3.45944 60.678416999999996 0 0 0
299 0 10 0.425 10.253959906507818 9.167072948515678 59.05244372823525 0 0 0
1189 0 9 -0.975 10.775363739783398 0.18338203545453044 59.847805588681084 0 1 0
1187 0 10 0.425 10.252855701558579 0.6940121983721862 59.114198721681284 0 1 0
6 0 3 -0.804 4.1047165571933055 8.51473806539051 57.74549950118383 0 0 0
301 0 9 -0.975 10.760786599308583 8.701818775538849 59.81421689151676 0 0 0
153 0 9 -0.975 2.3349301338040385 8.652551597420363 59.80290382949968 0 0 0
158 2 7 1.575 4.321178000000001 8.759439999999998 59.618416999999994 0 0 0
149 0 8 -1.05 6.404343 8.796274999999998 59.581582000000004 0 0 0
172 0 8 -1.05 4.358013000000001 10.842604999999999 59.581582000000004 0 0 0
157 0 3 -0.804 6.7991870445202425 11.20651829792627 57.76134046738238 0 0 0
151 0 10 0.425 1.785561885746416 9.13410548271928 59.07698087643534 0 0 0
607 2 6 1.05 6.441177999999999 10.879439999999999 59.618416999999994 0 0 0
641 1 7 1.575 3.261178 11.939440000000001 60.678416999999996 0 0 0
609 0 10 0.425 8.968987221713332 10.465383095087446 59.13497787804688 0 0 0
610 0 9 -0.975 8.459155389146115 10.999745465665926 59.869956910585856 0 0 0
17 0 10 0.425 0.5074735061002832 1.9778581774402908 59.0459852541096 0 0 0
162 0 3 -0.804 8.299672455761284 12.679030244709597 57.751318735475294 0 0 0
304 0 9 -0.975 12.676531216453773 6.774650917931126 59.787865709647484 0 0 0
18 0 9 -0.975 0.06919939775365336 2.5529837913004507 59.765986533873075 0 0 0
29 0 8 -1.05 0.04434199999999855 6.676274999999998 63.89525199999999 0 0 0
42 0 8 -1.05 0.04434199999999855 4.482605 61.701581999999995 0 0 0
43 2 6 1.05 0.08117799999999864 2.3994399999999994 61.73841699999999 0 0 0
45 1 7 1.575 1.1411779999999991 5.57944 62.798417 0 0 0
920 0 8 -1.05 2.1643429999999997 0.3162749999999974 63.82158199999999 0 1 0
934 0 8 -1.05 2.1643429999999997 2.3626049999999985 61.775251999999995 0 1 0
932 0 8 -1.05 0.11801299999999859 2.3626049999999985 63.82158199999999 0 1 0
919 0 8 -1.05 0.11801299999999859 0.3162749999999974 61.775251999999995 0 1 0
918 2 6 1.05 0.08117799999999864 0.27943999999999747 63.858416999999996 0 1 0
200 0 8 -1.05 4.358013000000001 4.556275 61.775251999999995 0 0 0
196 0 8 -1.05 2.2380129999999996 4.482605 63.89525199999999 0 0 0
189 0 8 -1.05 6.478012999999999 2.4362749999999993 61.701581999999995 0 0 0
185 0 8 -1.05 4.358013000000001 6.602605 63.82158199999999 0 0 0
198 0 8 -1.05 4.284343000000001 2.4362749999999993 63.89525199999999 0 0 0
173 0 8 -1.05 6.404343 6.602605 61.775251999999995 0 0 0
182 0 8 -1.05 2.2380129999999996 6.676274999999998 61.701581999999995 0 0 0
187 0 8 -1.05 6.404343 4.556275 63.82158199999999 0 0 0
174 2 6 1.05 6.441177999999999 6.639439999999998 63.858416999999996 0 0 0
195 2 7 1.575 2.2011779999999996 2.3994399999999994 63.858416999999996 0 0 0
188 2 6 1.05 6.441177999999999 4.51944 61.73841699999999 0 0 0
184 2 7 1.575 4.321178000000001 6.639439999999998 61.73841699999999 0 0 0
199 2 7 1.575 4.321178000000001 4.51944 63.858416999999996 0 0 0
1071 0 8 -1.05 4.284343000000001 0.2426039999999965 61.701581999999995 0 1 0
1063 0 8 -1.05 6.478012999999999 0.2426039999999965 63.89525199999999 0 1 0
1069 2 6 1.05 2.2011779999999996 0.27943999999999747 61.73841699999999 0 1 0
1074 1 7 1.575 5.381178 1.3394399999999997 62.798417 0 1 0
177 0 8 -1.05 8.524341999999999 6.676274999999998 63.89525199999999 0 0 0
190 0 8 -1.05 8.524341999999999 4.482605 61.701581999999995 0 0 0
191 2 7 1.575 8.561177999999998 2.3994399999999994 61.73841699999999 0 0 0
193 1 7 1.575 9.621178 5.57944 62.798417 0 0 0
1068 0 8 -1.05 10.644343 0.3162749999999974 63.82158199999999 0 1 0
1082 0 8 -1.05 10.644343 2.3626049999999985 61.775251999999995 0 1 0
1080 0 8 -1.05 8.598012999999998 2.3626049999999985 63.82158199999999 0 1 0
1067 0 8 -1.05 8.598012999999998 0.3162749999999974 61.775251999999995 0 1 0
1066 2 7 1.575 8.561177999999998 0.27943999999999747 63.858416999999996 0 1 0
344 0 8 -1.05 10.718013 4.482605 63.89525199999999 0 0 0
330 0 8 -1.05 10.718013 6.676274999999998 61.701581999999995 0 0 0
343 2 6 1.05 10.681178 2.3994399999999994 63.858416999999996 0 0 0
1217 2 7 1.575 10.681178 0.27943999999999747 61.73841699999999 0 1 0
32 0 8 -1.05 2.1643429999999997 8.796274999999998 63.82158199999999 0 0 0
46 0 8 -1.05 2.1643429999999997 10.842604999999999 61.775251999999995 0 0 0
44 0 8 -1.05 0.11801299999999859 10.842604999999999 63.82158199999999 0 0 0
31 0 8 -1.05 0.11801299999999859 8.796274999999998 61.775251999999995 0 0 0
30 2 7 1.575 0.08117799999999864 8.759439999999998 63.858416999999996 0 0 0
487 2 7 1.575 0.08117799999999864 10.879439999999999 61.73841699999999 0 0 0
183 0 8 -1.05 4.284343000000001 8.722603999999997 61.701581999999995 0 0 0
175 0 8 -1.05 6.478012999999999 8.722603999999997 63.89525199999999 0 0 0
181 2 7 1.575 2.2011779999999996 8.759439999999998 61.73841699999999 0 0 0
186 1 7 1.575 5.381178 9.81944 62.798417 0 0 0
633 0 8 -1.05 6.478012999999999 10.916274999999999 61.701581999999995 0 0 0
642 0 8 -1.05 4.284343000000001 10.916274999999999 63.89525199999999 0 0 0
639 2 7 1.575 2.2011779999999996 10.879439999999999 63.858416999999996 0 0 0
180 0 8 -1.05 10.644343 8.796274999999998 63.82158199999999 0 0 0
194 0 8 -1.05 10.644343 10.842604999999999 61.775251999999995 0 0 0
192 0 8 -1.05 8.598012999999998 10.842604999999999 63.82158199999999 0 0 0
179 0 8 -1.05 8.598012999999998 8.796274999999998 61.775251999999995 0 0 0
178 2 6 1.05 8.561177999999998 8.759439999999998 63.858416999999996 0 0 0
635 2 7 1.575 8.561177999999998 10.879439999999999 61.73841699999999 0 0 0
329 2 6 1.05 10.681178 8.759439999999998 61.73841699999999 0 0 0
787 2 6 1.05 10.681178 10.879439999999999 63.858416999999996 0 0 0
91 0 8 -1.05 0.04434199999999855 4.482605 70.18158199999998 0 0 0
90 0 8 -1.05 0.04434199999999855 2.4362749999999993 68.135252 0 0 0
68 2 7 1.575 0.08117799999999864 4.51944 68.09841699999998 0 0 0
92 2 6 1.05 0.08117799999999864 2.3994399999999994 70.21841699999999 0 0 0
93 1 7 1.575 1.1411779999999991 5.57944 71.27841699999999 0 0 0
58 0 8 -1.05 0.11801299999999859 6.602605 68.06158199999999 0 0 0
69 0 8 -1.05 0.11801299999999859 4.556275 66.01525199999999 0 0 0
70 0 8 -1.05 2.1643429999999997 4.556275 68.06158199999999 0 0 0
60 0 8 -1.05 2.1643429999999997 6.602605 66.01525199999999 0 0 0
57 2 7 1.575 0.08117799999999864 6.639439999999998 65.978417 0 0 0
982 0 8 -1.05 2.1643429999999997 2.3626049999999985 70.25525199999998 0 1 0
967 0 8 -1.05 0.11801299999999859 0.3162749999999974 70.25525199999998 0 1 0
944 0 8 -1.05 0.04434199999999855 0.2426039999999965 65.94158099999999 0 1 0
947 1 7 1.575 1.1411779999999991 1.3394399999999997 67.038417 0 1 0
244 0 8 -1.05 4.358013000000001 4.556275 70.25525199999998 0 0 0
231 0 8 -1.05 4.284343000000001 6.676274999999998 68.135252 0 0 0
236 0 8 -1.05 6.478012999999999 2.4362749999999993 70.18158199999998 0 0 0
237 0 8 -1.05 6.478012999999999 4.482605 68.135252 0 0 0
225 0 8 -1.05 6.404343 6.602605 70.25525199999998 0 0 0
229 0 8 -1.05 2.2380129999999996 6.676274999999998 70.18158199999998 0 0 0
235 2 7 1.575 6.441177999999999 4.51944 70.21841699999999 0 0 0
209 2 7 1.575 2.2011779999999996 6.639439999999998 68.09841699999998 0 0 0
233 2 7 1.575 4.321178000000001 6.639439999999998 70.21841699999999 0 0 0
214 2 7 1.575 6.441177999999999 2.3994399999999994 68.09841699999998 0 0 0
226 1 7 1.575 7.5011779999999995 7.69944 69.158417 0 0 0
243 1 7 1.575 3.261178 3.45944 69.158417 0 0 0
220 0 8 -1.05 2.2380129999999996 2.4362749999999993 65.94158099999999 0 0 0
203 0 8 -1.05 6.478012999999999 6.676274999999998 65.94158099999999 0 0 0
221 0 8 -1.05 4.284343000000001 4.482605 65.94158099999999 0 0 0
222 2 7 1.575 4.321178000000001 2.3994399999999994 65.978417 0 0 0
219 2 6 1.05 2.2011779999999996 4.51944 65.978417 0 0 0
224 1 7 1.575 5.381178 5.57944 67.038417 0 0 0
210 1 7 1.575 3.261178 7.69944 64.91841699999998 0 0 0
215 1 7 1.575 7.5011779999999995 3.45944 64.91841699999998 0 0 0
1120 0 8 -1.05 4.284343000000001 0.2426039999999965 70.18158199999998 0 1 0
1118 0 8 -1.05 2.2380129999999996 0.2426039999999965 68.135252 0 1 0
1099 2 7 1.575 4.321178000000001 0.27943999999999747 68.09841699999998 0 1 0
1116 2 7 1.575 2.2011779999999996 0.27943999999999747 70.21841699999999 0 1 0
1122 1 7 1.575 5.381178 1.3394399999999997 71.27841699999999 0 1 0
1101 0 8 -1.05 6.404343 2.3626049999999985 66.01525199999999 0 1 0
1089 0 8 -1.05 6.404343 0.3162749999999974 68.06158199999999 0 1 0
1100 0 8 -1.05 4.358013000000001 0.3162749999999974 66.01525199999999 0 1 0
1111 0 8 -1.05 4.358013000000001 2.3626049999999985 68.06158199999999 0 1 0
1090 2 7 1.575 6.441177999999999 0.27943999999999747 65.978417 0 1 0
239 0 8 -1.05 8.524341999999999 4.482605 70.18158199999998 0 0 0
238 0 8 -1.05 8.524341999999999 2.4362749999999993 68.135252 0 0 0
216 2 7 1.575 8.561177999999998 4.51944 68.09841699999998 0 0 0
240 2 6 1.05 8.561177999999998 2.3994399999999994 70.21841699999999 0 0 0
241 1 7 1.575 9.621178 5.57944 71.27841699999999 0 0 0
206 0 8 -1.05 8.598012999999998 6.602605 68.06158199999999 0 0 0
217 0 8 -1.05 8.598012999999998 4.556275 66.01525199999999 0 0 0
218 0 8 -1.05 10.644343 4.556275 68.06158199999999 0 0 0
208 0 8 -1.05 10.644343 6.602605 66.01525199999999 0 0 0
205 2 7 1.575 8.561177999999998 6.639439999999998 65.978417 0 0 0
1130 0 8 -1.05 10.644343 2.3626049999999985 70.25525199999998 0 1 0
1115 0 8 -1.05 8.598012999999998 0.3162749999999974 70.25525199999998 0 1 0
1092 0 8 -1.05 8.524341999999999 0.2426039999999965 65.94158099999999 0 1 0
1095 1 7 1.575 9.621178 1.3394399999999997 67.038417 0 1 0
377 0 8 -1.05 10.718013 6.676274999999998 70.18158199999998 0 0 0
357 2 7 1.575 10.681178 6.639439999999998 68.09841699999998 0 0 0
391 1 7 1.575 11.741178000000001 3.45944 69.158417 0 0 0
368 0 8 -1.05 10.718013 2.4362749999999993 65.94158099999999 0 0 0
367 2 6 1.05 10.681178 4.51944 65.978417 0 0 0
358 1 7 1.575 11.741178000000001 7.69944 64.91841699999998 0 0 0
1266 0 8 -1.05 10.718013 0.2426039999999965 68.135252 0 1 0
1264 2 6 1.05 10.681178 0.27943999999999747 70.21841699999999 0 1 0
94 0 8 -1.05 2.1643429999999997 10.842604999999999 70.25525199999998 0 0 0
79 0 8 -1.05 0.11801299999999859 8.796274999999998 70.25525199999998 0 0 0
56 0 8 -1.05 0.04434199999999855 8.722603999999997 65.94158099999999 0 0 0
59 1 7 1.575 1.1411779999999991 9.81944 67.038417 0 0 0
534 0 8 -1.05 0.04434199999999855 10.916274999999999 68.135252 0 0 0
536 2 7 1.575 0.08117799999999864 10.879439999999999 70.21841699999999 0 0 0
232 0 8 -1.05 4.284343000000001 8.722603999999997 70.18158199999998 0 0 0
230 0 8 -1.05 2.2380129999999996 8.722603999999997 68.135252 0 0 0
211 2 6 1.05 4.321178000000001 8.759439999999998 68.09841699999998 0 0 0
228 2 6 1.05 2.2011779999999996 8.759439999999998 70.21841699999999 0 0 0
234 1 7 1.575 5.381178 9.81944 71.27841699999999 0 0 0
213 0 8 -1.05 6.404343 10.842604999999999 66.01525199999999 0 0 0
201 0 8 -1.05 6.404343 8.796274999999998 68.06158199999999 0 0 0
212 0 8 -1.05 4.358013000000001 8.796274999999998 66.01525199999999 0 0 0
223 0 8 -1.05 4.358013000000001 10.842604999999999 68.06158199999999 0 0 0
202 2 7 1.575 6.441177999999999 8.759439999999998 65.978417 0 0 0
680 0 8 -1.05 6.478012999999999 10.916274999999999 70.18158199999998 0 0 0
658 2 6 1.05 6.441177999999999 10.879439999999999 68.09841699999998 0 0 0
687 1 7 1.575 3.261178 11.939440000000001 69.158417 0 0 0
664 0 8 -1.05 2.2380129999999996 10.916274999999999 65.94158099999999 0 0 0
666 2 7 1.575 4.321178000000001 10.879439999999999 65.978417 0 0 0
659 1 7 1.575 7.5011779999999995 11.939440000000001 64.91841699999998 0 0 0
242 0 8 -1.05 10.644343 10.842604999999999 70.25525199999998 0 0 0
227 0 8 -1.05 8.598012999999998 8.796274999999998 70.25525199999998 0 0 0
204 0 8 -1.05 8.524341999999999 8.722603999999997 65.94158099999999 0 0 0
207 1 7 1.575 9.621178 9.81944 67.038417 0 0 0
682 0 8 -1.05 8.524341999999999 10.916274999999999 68.135252 0 0 0
684 2 7 1.575 8.561177999999998 10.879439999999999 70.21841699999999 0 0 0
378 0 8 -1.05 10.718013 8.722603999999997 68.135252 0 0 0
376 2 7 1.575 10.681178 8.759439999999998 70.21841699999999 0 0 0
835 1 7 1.575 11.741178000000001 11.939440000000001 69.158417 0 0 0
812 0 8 -1.05 10.718013 10.916274999999999 65.94158099999999 0 0 0
115 0 8 -1.05 0.11801299999999859 4.556275 74.49525199999998 0 0 0
101 0 8 -1.05 0.04434199999999855 6.676274999999998 72.37525199999999 0 0 0
106 0 8 -1.05 2.1643429999999997 6.602605 74.49525199999998 0 0 0
103 2 7 1.575 0.08117799999999864 6.639439999999998 74.458417 0 0 0
990 0 8 -1.05 0.04434199999999855 0.2426039999999965 74.421581 0 1 0
995 0 8 -1.05 2.1643429999999997 0.3162749999999974 72.30158199999998 0 1 0
1002 0 8 -1.05 0.11801299999999859 2.3626049999999985 72.30158199999998 0 1 0
992 2 7 1.575 0.08117799999999864 0.27943999999999747 72.33841699999998 0 1 0
267 0 8 -1.05 2.2380129999999996 4.482605 72.37525199999999 0 0 0
257 0 8 -1.05 4.358013000000001 6.602605 72.30158199999998 0 0 0
266 0 8 -1.05 2.2380129999999996 2.4362749999999993 74.421581 0 0 0
268 0 8 -1.05 4.284343000000001 2.4362749999999993 72.37525199999999 0 0 0
247 0 8 -1.05 6.478012999999999 6.676274999999998 74.421581 0 0 0
269 0 8 -1.05 4.284343000000001 4.482605 74.421581 0 0 0
260 0 8 -1.05 6.404343 4.556275 72.30158199999998 0 0 0
245 2 7 1.575 6.441177999999999 6.639439999999998 72.33841699999998 0 0 0
264 2 7 1.575 2.2011779999999996 2.3994399999999994 72.33841699999998 0 0 0
270 2 6 1.05 4.321178000000001 2.3994399999999994 74.458417 0 0 0
265 2 6 1.05 2.2011779999999996 4.51944 74.458417 0 0 0
271 2 6 1.05 4.321178000000001 4.51944 72.33841699999998 0 0 0
256 1 7 1.575 3.261178 7.69944 73.398417 0 0 0
261 1 7 1.575 7.5011779999999995 3.45944 73.398417 0 0 0
1147 0 8 -1.05 6.404343 2.3626049999999985 74.49525199999998 0 1 0
1146 0 8 -1.05 4.358013000000001 0.3162749999999974 74.49525199999998 0 1 0
1136 0 8 -1.05 6.478012999999999 0.2426039999999965 72.37525199999999 0 1 0
1134 2 6 1.05 6.441177999999999 0.27943999999999747 74.458417 0 1 0
263 0 8 -1.05 8.598012999999998 4.556275 74.49525199999998 0 0 0
249 0 8 -1.05 8.524341999999999 6.676274999999998 72.37525199999999 0 0 0
254 0 8 -1.05 10.644343 6.602605 74.49525199999998 0 0 0
251 2 6 1.05 8.561177999999998 6.639439999999998 74.458417 0 0 0
1138 0 8 -1.05 8.524341999999999 0.2426039999999965 74.421581 0 1 0
1143 0 8 -1.05 10.644343 0.3162749999999974 72.30158199999998 0 1 0
1150 0 8 -1.05 8.598012999999998 2.3626049999999985 72.30158199999998 0 1 0
1140 2 6 1.05 8.561177999999998 0.27943999999999747 72.33841699999998 0 1 0
415 0 8 -1.05 10.718013 4.482605 72.37525199999999 0 0 0
414 0 8 -1.05 10.718013 2.4362749999999993 74.421581 0 0 0
412 2 7 1.575 10.681178 2.3994399999999994 72.33841699999998 0 0 0
413 2 7 1.575 10.681178 4.51944 74.458417 0 0 0
404 1 7 1.575 11.741178000000001 7.69944 73.398417 0 0 0
102 0 8 -1.05 0.04434199999999855 8.722603999999997 74.421581 0 0 0
107 0 8 -1.05 2.1643429999999997 8.796274999999998 72.30158199999998 0 0 0
114 0 8 -1.05 0.11801299999999859 10.842604999999999 72.30158199999998 0 0 0
104 2 7 1.575 0.08117799999999864 8.759439999999998 72.33841699999998 0 0 0
259 0 8 -1.05 6.404343 10.842604999999999 74.49525199999998 0 0 0
258 0 8 -1.05 4.358013000000001 8.796274999999998 74.49525199999998 0 0 0
248 0 8 -1.05 6.478012999999999 8.722603999999997 72.37525199999999 0 0 0
246 2 7 1.575 6.441177999999999 8.759439999999998 74.458417 0 0 0
710 0 8 -1.05 2.2380129999999996 10.916274999999999 74.421581 0 0 0
712 0 8 -1.05 4.284343000000001 10.916274999999999 72.37525199999999 0 0 0
708 2 7 1.575 2.2011779999999996 10.879439999999999 72.33841699999998 0 0 0
714 2 6 1.05 4.321178000000001 10.879439999999999 74.458417 0 0 0
705 1 7 1.575 7.5011779999999995 11.939440000000001 73.398417 0 0 0
250 0 8 -1.05 8.524341999999999 8.722603999999997 74.421581 0 0 0
255 0 8 -1.05 10.644343 8.796274999999998 72.30158199999998 0 0 0
262 0 8 -1.05 8.598012999999998 10.842604999999999 72.30158199999998 0 0 0
252 2 6 1.05 8.561177999999998 8.759439999999998 72.33841699999998 0 0 0
858 0 8 -1.05 10.718013 10.916274999999999 74.421581 0 0 0
856 2 7 1.575 10.681178 10.879439999999999 72.33841699999998 0 0 0
143 2 7 1.575 0.08117799999999864 4.51944 76.578417 0 0 0
142 0 8 -1.05 0.04434199999999855 2.4362749999999993 76.615252 0 0 0
127 0 9 -0.975 0.2088361485541639 6.512123162674764 76.39864486945496 0 0 0
146 0 9 -0.975 2.0982310066985916 4.621681554484579 76.34319949863881 0 0 0
144 0 3 -0.804 1.9436869464607758 6.268325575223511 78.46353183828981 0 0 0
139 0 3 -0.804 0.4481031883235641 4.760337536691637 78.4683689941406 0 0 0
147 0 10 0.425 2.630049770605174 4.096500482428788 77.05661801044621 0 0 0
280 0 2 -0.123 5.38609189603323 9.79728529860531 80.16823633478897 0 0 0
993 1 7 1.575 1.1411779999999991 1.3394399999999997 75.51841699999999 0 1 0
277 2 7 1.575 2.2011779999999996 6.639439999999998 76.578417 0 0 0
285 2 7 1.575 6.441177999999999 2.3994399999999994 76.578417 0 0 0
286 0 8 -1.05 6.478012999999999 4.482605 76.615252 0 0 0
281 0 8 -1.05 4.284343000000001 6.676274999999998 76.615252 0 0 0
272 1 7 1.575 5.381178 5.57944 75.51841699999999 0 0 0
274 0 10 0.425 6.852591990396727 8.353960536124006 77.0524830248903 0 0 0
1171 2 7 1.575 4.321178000000001 0.27943999999999747 76.578417 0 1 0
1166 0 8 -1.05 2.2380129999999996 0.2426039999999965 76.615252 0 1 0
1161 0 9 -0.975 6.338029807030816 0.3792128788234908 76.43739613068601 0 1 0
1184 0 9 -0.975 4.411390326443637 2.3037040484071847 76.4180396101032 0 1 0
1170 0 3 -0.804 6.088874344929161 2.1028986752960974 78.48286847007083 0 1 0
1164 0 3 -0.804 4.575650424714479 0.6076169730081078 78.4929626638286 0 1 0
1172 0 10 0.425 3.8968637120891008 2.8224297875907434 77.13921057109204 0 1 0
291 2 7 1.575 8.561177999999998 4.51944 76.578417 0 0 0
290 0 8 -1.05 8.524341999999999 2.4362749999999993 76.615252 0 0 0
275 0 9 -0.975 8.678920400149508 6.5209015909860355 76.41062911530696 0 0 0
294 0 9 -0.975 10.600979011563489 4.607923868833409 76.34988268643431 0 0 0
292 0 3 -0.804 10.424317569892265 6.2452915188711255 78.46859024769024 0 0 0
287 0 3 -0.804 8.907321570150254 4.777977808311835 78.47231215133343 0 0 0
295 0 10 0.425 11.097199888744719 4.110282106158556 77.10817491348236 0 0 0
293 0 10 0.425 8.168845950623679 7.03804553915051 77.14089598799387 0 0 0
1141 1 7 1.575 9.621178 1.3394399999999997 75.51841699999999 0 1 0
425 2 7 1.575 10.681178 6.639439999999998 76.578417 0 0 0
1314 0 8 -1.05 10.718013 0.2426039999999965 76.615252 0 1 0
105 1 7 1.575 1.1411779999999991 9.81944 75.51841699999999 0 0 0
586 0 8 -1.05 0.04434199999999855 10.916274999999999 76.615252 0 0 0
591 0 10 0.425 2.5951774636380502 12.592774226016614 77.10831088053199 0 0 0
283 2 7 1.575 4.321178000000001 8.759439999999998 76.578417 0 0 0
278 0 8 -1.05 2.2380129999999996 8.722603999999997 76.615252 0 0 0
273 0 9 -0.975 6.315910828012095 8.876301220346274 76.33388428401223 0 0 0
296 0 9 -0.975 4.4158269069290315 10.768776001708382 76.34327406699164 0 0 0
282 0 3 -0.804 6.124048119464585 10.554841788161683 78.46136213399043 0 0 0
276 0 3 -0.804 4.657637815846966 9.040695600964089 78.4561795831386 0 0 0
284 0 10 0.425 3.912702123145711 11.280977511398039 77.09373194995729 0 0 0
729 2 7 1.575 6.441177999999999 10.879439999999999 76.578417 0 0 0
253 1 7 1.575 9.621178 9.81944 75.51841699999999 0 0 0
734 0 8 -1.05 8.524341999999999 10.916274999999999 76.615252 0 0 0
739 0 10 0.425 11.112318752974215 12.5684278941698 77.08517391742588 0 0 0
426 0 8 -1.05 10.718013 8.722603999999997 76.615252 0 0 0
140 0 1 0.731 1.1802700081664914 5.532601050265519 79.07052845123248 0 0 0
141 0 2 -0.123 1.147619055811473 5.56773995808897 80.17034517489921 0 0 0
1167 0 1 0.731 5.343250475389281 1.3482345772856381 79.08679669777736 0 1 0
1168 0 2 -0.123 5.371623961761548 1.3248009460853307 80.18588062841206 0 1 0
288 0 1 0.731 9.647044698346766 5.533288359915115 79.07748965283845 0 0 0
289 0 2 -0.123 9.608421668615218 5.575103364704038 80.17369968808066 0 0 0
279 0 1 0.731 5.392117872887457 9.79507785964265 79.0708607166887 0 0 0
1320 0 10 0.425 12.388183345115184 2.7925213237127755 77.0658936853421 0 1 0
432 0 10 0.425 12.375993241838158 11.2860234802882 77.11739404327159 0 0 0
466 0 1 0.731 3.3037565404600757 16.131180074546737 57.13215611666303 0 0 0
465 0 2 -0.123 3.251429974483144 16.188661241404944 56.0380675754786 0 0 0
614 0 1 0.731 11.762549338539008 16.1334159466863 57.12133741297418 0 0 0
613 0 2 -0.123 11.735060936166233 16.160625859113466 56.02458099825024 0 0 0
910 0 1 0.731 3.234373006691812 24.637343756098286 57.10898482145903 0 0 0
909 0 2 -0.123 3.1793894799117015 24.696653220840652 56.01254543294346 0 0 0
604 0 1 0.731 7.497215432832285 20.396292922260187 57.1217025435042 0 0 0
603 0 2 -0.123 7.461783722016479 20.43428926245101 56.025476024453276 0 0 0
1058 0 1 0.731 11.74026306047763 24.652929259532122 57.13007254396414 0 0 0
1057 0 2 -0.123 11.732763265567325 24.66757080365433 56.03179669313396 0 0 0
1192 0 9 -0.975 12.689390211935066 23.71766131614923 59.80562687588646 0 0 0
463 2 7 1.575 0.08117799999999864 12.99944 59.618416999999994 0 0 0
446 0 8 -1.05 0.11801299999999859 15.082605000000001 59.581582000000004 0 0 0
467 0 8 -1.05 2.1643429999999997 13.036275 59.581582000000004 0 0 0
464 0 3 -0.804 2.5704337890467017 15.370087205905177 57.738904555795266 0 0 0
600 0 9 -0.975 4.249559371866954 15.189855935103887 59.854177097637745 0 0 0
608 0 9 -0.975 6.565621237365318 12.894493430634233 59.85925585302384 0 0 0
596 2 7 1.575 2.2011779999999996 15.119439999999997 59.618416999999994 0 0 0
620 1 7 1.575 7.5011779999999995 16.17944 60.678416999999996 0 0 0
599 0 10 0.425 4.734005125850009 14.696138452279298 59.08687269309733 0 0 0
605 0 10 0.425 6.043682705733022 13.398652212055474 59.11444386038565 0 0 0
598 0 3 -0.804 12.533134373879568 16.85915590050118 57.7308320504839 0 0 0
611 2 7 1.575 8.561177999999998 12.99944 59.618416999999994 0 0 0
594 0 8 -1.05 8.598012999999998 15.082605000000001 59.581582000000004 0 0 0
615 0 8 -1.05 10.644343 13.036275 59.581582000000004 0 0 0
612 0 3 -0.804 11.0261216334506 15.371951914141725 57.730827684110714 0 0 0
744 2 7 1.575 10.681178 15.119439999999997 59.618416999999994 0 0 0
894 0 3 -0.804 4.006825720265278 25.36657590744339 57.706991963598504 0 0 0
1233 1 7 1.575 11.741178000000001 20.41944 60.678416999999996 0 0 0
450 0 3 -0.804 4.094953516790546 16.827973927806653 57.74374905259753 0 0 0
1188 2 7 1.575 10.681178 23.599439999999998 59.618416999999994 0 0 0
907 2 7 1.575 0.08117799999999864 21.47944 59.618416999999994 0 0 0
890 0 8 -1.05 0.11801299999999859 23.562605 59.581582000000004 0 0 0
911 0 8 -1.05 2.1643429999999997 21.516275 59.581582000000004 0 0 0
908 0 3 -0.804 2.527617442225965 23.837486117165977 57.69833020492205 0 0 0
597 0 9 -0.975 2.33569917105947 17.09761779645134 59.79668762567263 0 0 0
602 2 7 1.575 4.321178000000001 17.23944 59.618416999999994 0 0 0
593 0 8 -1.05 6.404343 17.276275 59.581582000000004 0 0 0
616 0 8 -1.05 4.358013000000001 19.322605 59.581582000000004 0 0 0
601 0 3 -0.804 6.782476492770082 19.612055812088766 57.72590983991469 0 0 0
595 0 10 0.425 1.8045855457992175 17.65268858168374 59.10606670923296 0 0 0
1044 0 9 -0.975 4.235777112523674 23.68447453985906 59.77439650478638 0 0 0
1052 0 9 -0.975 6.572201437273516 21.344238149197892 59.844566881686525 0 0 0
1040 2 7 1.575 2.2011779999999996 23.599439999999998 59.618416999999994 0 0 0
1051 2 7 1.575 6.441177999999999 19.35944 59.618416999999994 0 0 0
1064 1 7 1.575 7.5011779999999995 24.65944 60.678416999999996 0 0 0
1085 1 7 1.575 3.261178 20.41944 60.678416999999996 0 0 0
1043 0 10 0.425 4.737696653602969 23.182081221203443 59.039192574331544 0 0 0
1053 0 10 0.425 8.974780761908807 18.94918001629102 59.10362192100963 0 0 0
1049 0 10 0.425 6.0245922458481775 21.897254544469817 59.16011687869853 0 0 0
606 0 3 -0.804 8.260516925732675 21.128560283749692 57.73141574486381 0 0 0
1054 0 9 -0.975 8.463067870466146 19.45127045230538 59.848120359876425 0 0 0
1055 2 7 1.575 8.561177999999998 21.47944 59.618416999999994 0 0 0
1038 0 8 -1.05 8.598012999999998 23.562605 59.581582000000004 0 0 0
1059 0 8 -1.05 10.644343 21.516275 59.581582000000004 0 0 0
1056 0 3 -0.804 11.022894891057438 23.875677674352325 57.73645309137533 0 0 0
745 0 9 -0.975 10.815285872318736 17.098443055031993 59.79626254420506 0 0 0
743 0 10 0.425 10.292346747149368 17.63524890031185 59.08820822674809 0 0 0
905 0 10 0.425 0.505644501364461 18.94579408169668 59.0805053916547 0 0 0
1042 0 3 -0.804 12.469090497079534 25.413459741471595 57.743729530019095 0 0 0
473 0 8 -1.05 0.04434199999999855 15.156274999999997 63.89525199999999 0 0 0
486 0 8 -1.05 0.04434199999999855 12.962605 61.701581999999995 0 0 0
489 1 7 1.575 1.1411779999999991 14.05944 62.798417 0 0 0
644 0 8 -1.05 4.358013000000001 13.036275 61.775251999999995 0 0 0
640 0 8 -1.05 2.2380129999999996 12.962605 63.89525199999999 0 0 0
629 0 8 -1.05 4.358013000000001 15.082605000000001 63.82158199999999 0 0 0
617 0 8 -1.05 6.404343 15.082605000000001 61.775251999999995 0 0 0
626 0 8 -1.05 2.2380129999999996 15.156274999999997 61.701581999999995 0 0 0
631 0 8 -1.05 6.404343 13.036275 63.82158199999999 0 0 0
618 2 7 1.575 6.441177999999999 15.119439999999997 63.858416999999996 0 0 0
632 2 7 1.575 6.441177999999999 12.99944 61.73841699999999 0 0 0
628 2 7 1.575 4.321178000000001 15.119439999999997 61.73841699999999 0 0 0
643 2 7 1.575 4.321178000000001 12.99944 63.858416999999996 0 0 0
621 0 8 -1.05 8.524341999999999 15.156274999999997 63.89525199999999 0 0 0
634 0 8 -1.05 8.524341999999999 12.962605 61.701581999999995 0 0 0
637 1 7 1.575 9.621178 14.05944 62.798417 0 0 0
788 0 8 -1.05 10.718013 12.962605 63.89525199999999 0 0 0
774 0 8 -1.05 10.718013 15.156274999999997 61.701581999999995 0 0 0
476 0 8 -1.05 2.1643429999999997 17.276275 63.82158199999999 0 0 0
490 0 8 -1.05 2.1643429999999997 19.322605 61.775251999999995 0 0 0
488 0 8 -1.05 0.11801299999999859 19.322605 63.82158199999999 0 0 0
475 0 8 -1.05 0.11801299999999859 17.276275 61.775251999999995 0 0 0
474 2 6 1.05 0.08117799999999864 17.23944 63.858416999999996 0 0 0
917 0 8 -1.05 0.04434199999999855 23.636274999999998 63.89525199999999 0 0 0
930 0 8 -1.05 0.04434199999999855 21.442605 61.701581999999995 0 0 0