LAMMPS data file via write_data, version 29 Sep 2021, timestep = 946115

1332 atoms
10 atom types
180 bonds
6 bond types
324 angles
6 angle types
0 dihedrals
2 dihedral types
36 impropers
2 improper types

0 25.44 xlo xhi
0 25.44 ylo yhi
35.929417 100.267417 zlo zhi

Masses

1 12.011
2 1.008
3 15.9994
4 15.9994
5 1.008
6 55.845
7 55.845
8 15.9994
9 15.9994
10 1.008

Pair Coeffs # lj/cut/coul/long

1 0.0988 3.31521
2 0.0161 2.4473
3 0.1463 3.04812
4 0.093 3.24287
5 0.0047 0.537925
6 9.0298e-07 4.9062
7 9.0298e-07 4.9062
8 0.1554 3.16554
9 0.1554 3.16554
10 0 0

Bond Coeffs # harmonic

1 361.8 1.105
2 652.57 1.218
3 383.13 1.351
4 563.51 0.973
5 554.135 1
6 0 2.08

Angle Coeffs # harmonic

1 51.617 106.55
2 65.93 123.65
3 65.262 109.49
4 115.745 122.1
5 118.817 130.25
6 30 109.47

Dihedral Coeffs # fourier

1 1 2.3 2 180
2 2 2.3 2 180 1.9 1 0

Improper Coeffs # cvff

1 10.5 -1 2
2 10.5 -1 2

Atoms # full

22 0 1 0.731 3.2227702608094715 7.690134674619876 57.11460169935711 0 0 0
21 0 2 -0.123 3.219302243414838 7.691446443601158 56.01987593239129 0 0 0
1048 0 1 0.731 7.522534821305285 3.4199878103559525 57.12931410560133 0 1 0
1047 0 2 -0.123 7.483174177902799 3.459577257809515 56.037795254051574 0 1 0
170 0 1 0.731 11.736246742518365 7.704189103799251 57.1105166078366 0 0 0
169 0 2 -0.123 11.726175166678837 7.7172950533838796 56.006716657696835 0 0 0
160 0 1 0.731 7.517461424440139 11.954595245771925 57.117593122886994 0 0 0
159 0 2 -0.123 7.542433146917701 11.933955291531639 56.014842024616684 0 0 0
461 0 10 0.425 0.4933670759495382 10.4669416501519 59.14008977584383 0 0 0
19 2 7 1.575 0.08117799999999864 4.51944 59.618416999999994 0 0 0
2 0 8 -1.05 0.11801299999999859 6.602605 59.581582000000004 0 0 0
23 0 8 -1.05 2.1643429999999997 4.556275 59.581582000000004 0 0 0
20 0 3 -0.804 2.4661776624212877 6.942133856888838 57.70997361288912 0 0 0
789 1 7 1.575 11.741178000000001 11.939440000000001 60.678416999999996 0 0 0
154 0 3 -0.804 12.478043585947656 8.450682602899063 57.725123301109655 0 0 0
156 0 9 -0.975 4.215519674366147 6.7558142839139235 59.76793101597863 0 0 0
164 0 9 -0.975 6.565207921767361 4.410937578808782 59.82474402654012 0 0 0
152 2 7 1.575 2.2011779999999996 6.639439999999998 59.618416999999994 0 0 0
163 2 7 1.575 6.441177999999999 2.3994399999999994 59.618416999999994 0 0 0
176 1 7 1.575 7.5011779999999995 7.69944 60.678416999999996 0 0 0
197 1 7 1.575 3.261178 3.45944 60.678416999999996 0 0 0
155 0 10 0.425 4.734479705163075 6.218099288331359 59.06698864775732 0 0 0
165 0 10 0.425 8.97849089390378 1.9793552197131499 59.07358074781641 0 0 0
161 0 10 0.425 6.018589871911401 4.937716184577533 59.12604573670163 0 0 0
1041 0 9 -0.975 2.3177446955949916 0.14073245474489707 59.79155953205228 0 1 0
1046 2 7 1.575 4.321178000000001 0.27943999999999747 59.618416999999994 0 1 0
1037 0 8 -1.05 6.404343 0.3162749999999974 59.581582000000004 0 1 0
1060 0 8 -1.05 4.358013000000001 2.3626049999999985 59.581582000000004 0 1 0
1045 0 3 -0.804 6.786684475630182 2.6544546805499882 57.72589551105398 0 1 0
1039 0 10 0.425 1.79466131603062 0.69870799675113 59.10392712555626 0 1 0
166 0 9 -0.975 8.473814607222804 2.504999861995632 59.79472845109337 0 0 0
167 2 7 1.575 8.561177999999998 4.51944 59.618416999999994 0 0 0
150 0 8 -1.05 8.598012999999998 6.602605 59.581582000000004 0 0 0
171 0 8 -1.05 10.644343 4.556275 59.581582000000004 0 0 0
168 0 3 -0.804 10.992880857571858 6.957778644165472 57.72073960832505 0 0 0
1050 0 3 -0.804 8.298479015187214 4.151185159367709 57.72991450970294 0 1 0
300 2 7 1.575 10.681178 6.639439999999998 59.618416999999994 0 0 0
345 1 7 1.575 11.741178000000001 3.45944 60.678416999999996 0 0 0
299 0 10 0.425 10.272173038608395 9.168987469878322 59.10841764971261 0 0 0
1189 0 9 -0.975 10.80899510945746 0.16535951228945361 59.849193153140384 0 1 0
1187 0 10 0.425 10.267344076500839 0.6930690977866485 59.14091594554347 0 1 0
6 0 3 -0.804 3.971067510713481 8.451076848562261 57.71303863633734 0 0 0
301 0 9 -0.975 10.783269317618096 8.657635656208626 59.850901433676356 0 0 0
153 0 9 -0.975 2.286915605448396 8.67586769286816 59.7796983313082 0 0 0
158 2 7 1.575 4.321178000000001 8.759439999999998 59.618416999999994 0 0 0
149 0 8 -1.05 6.404343 8.796274999999998 59.581582000000004 0 0 0
172 0 8 -1.05 4.358013000000001 10.842604999999999 59.581582000000004 0 0 0
157 0 3 -0.804 6.767043306531836 11.21950179030051 57.728645618182476 0 0 0
151 0 10 0.425 1.773987463550205 9.183384612877695 59.05346725641457 0 0 0
607 2 7 1.575 6.441177999999999 10.879439999999999 59.618416999999994 0 0 0
641 1 7 1.575 3.261178 11.939440000000001 60.678416999999996 0 0 0
609 0 10 0.425 8.969336194296163 10.47199268287636 59.10078081339483 0 0 0
610 0 9 -0.975 8.465488793286772 10.984342997208874 59.84573579298141 0 0 0
17 0 10 0.425 0.5011336913473692 1.994043308307492 59.09598597434955 0 0 0
304 0 9 -0.975 12.67600786814836 6.7582180318036205 59.846571967883506 0 0 0
162 0 3 -0.804 8.257643898835463 12.702687575337599 57.73207850796552 0 0 0
29 0 8 -1.05 0.04434199999999855 6.676274999999998 63.89525199999999 0 0 0
42 0 8 -1.05 0.04434199999999855 4.482605 61.701581999999995 0 0 0
43 2 6 1.05 0.08117799999999864 2.3994399999999994 61.73841699999999 0 0 0
45 1 7 1.575 1.1411779999999991 5.57944 62.798417 0 0 0
920 0 8 -1.05 2.1643429999999997 0.3162749999999974 63.82158199999999 0 1 0
934 0 8 -1.05 2.1643429999999997 2.3626049999999985 61.775251999999995 0 1 0
932 0 8 -1.05 0.11801299999999859 2.3626049999999985 63.82158199999999 0 1 0
919 0 8 -1.05 0.11801299999999859 0.3162749999999974 61.775251999999995 0 1 0
918 2 6 1.05 0.08117799999999864 0.27943999999999747 63.858416999999996 0 1 0
200 0 8 -1.05 4.358013000000001 4.556275 61.775251999999995 0 0 0
196 0 8 -1.05 2.2380129999999996 4.482605 63.89525199999999 0 0 0
189 0 8 -1.05 6.478012999999999 2.4362749999999993 61.701581999999995 0 0 0
185 0 8 -1.05 4.358013000000001 6.602605 63.82158199999999 0 0 0
198 0 8 -1.05 4.284343000000001 2.4362749999999993 63.89525199999999 0 0 0
173 0 8 -1.05 6.404343 6.602605 61.775251999999995 0 0 0
182 0 8 -1.05 2.2380129999999996 6.676274999999998 61.701581999999995 0 0 0
187 0 8 -1.05 6.404343 4.556275 63.82158199999999 0 0 0
174 2 7 1.575 6.441177999999999 6.639439999999998 63.858416999999996 0 0 0
195 2 6 1.05 2.2011779999999996 2.3994399999999994 63.858416999999996 0 0 0
188 2 6 1.05 6.441177999999999 4.51944 61.73841699999999 0 0 0
184 2 6 1.05 4.321178000000001 6.639439999999998 61.73841699999999 0 0 0
199 2 7 1.575 4.321178000000001 4.51944 63.858416999999996 0 0 0
1071 0 8 -1.05 4.284343000000001 0.2426039999999965 61.701581999999995 0 1 0
1063 0 8 -1.05 6.478012999999999 0.2426039999999965 63.89525199999999 0 1 0
1069 2 7 1.575 2.2011779999999996 0.27943999999999747 61.73841699999999 0 1 0
1074 1 7 1.575 5.381178 1.3394399999999997 62.798417 0 1 0
177 0 8 -1.05 8.524341999999999 6.676274999999998 63.89525199999999 0 0 0
190 0 8 -1.05 8.524341999999999 4.482605 61.701581999999995 0 0 0
191 2 7 1.575 8.561177999999998 2.3994399999999994 61.73841699999999 0 0 0
193 1 7 1.575 9.621178 5.57944 62.798417 0 0 0
1068 0 8 -1.05 10.644343 0.3162749999999974 63.82158199999999 0 1 0
1082 0 8 -1.05 10.644343 2.3626049999999985 61.775251999999995 0 1 0
1080 0 8 -1.05 8.598012999999998 2.3626049999999985 63.82158199999999 0 1 0
1067 0 8 -1.05 8.598012999999998 0.3162749999999974 61.775251999999995 0 1 0
1066 2 7 1.575 8.561177999999998 0.27943999999999747 63.858416999999996 0 1 0
344 0 8 -1.05 10.718013 4.482605 63.89525199999999 0 0 0
330 0 8 -1.05 10.718013 6.676274999999998 61.701581999999995 0 0 0
343 2 6 1.05 10.681178 2.3994399999999994 63.858416999999996 0 0 0
1217 2 6 1.05 10.681178 0.27943999999999747 61.73841699999999 0 1 0
32 0 8 -1.05 2.1643429999999997 8.796274999999998 63.82158199999999 0 0 0
46 0 8 -1.05 2.1643429999999997 10.842604999999999 61.775251999999995 0 0 0
44 0 8 -1.05 0.11801299999999859 10.842604999999999 63.82158199999999 0 0 0
31 0 8 -1.05 0.11801299999999859 8.796274999999998 61.775251999999995 0 0 0
30 2 6 1.05 0.08117799999999864 8.759439999999998 63.858416999999996 0 0 0
487 2 7 1.575 0.08117799999999864 10.879439999999999 61.73841699999999 0 0 0
183 0 8 -1.05 4.284343000000001 8.722603999999997 61.701581999999995 0 0 0
175 0 8 -1.05 6.478012999999999 8.722603999999997 63.89525199999999 0 0 0
181 2 7 1.575 2.2011779999999996 8.759439999999998 61.73841699999999 0 0 0
186 1 7 1.575 5.381178 9.81944 62.798417 0 0 0
633 0 8 -1.05 6.478012999999999 10.916274999999999 61.701581999999995 0 0 0
642 0 8 -1.05 4.284343000000001 10.916274999999999 63.89525199999999 0 0 0
639 2 7 1.575 2.2011779999999996 10.879439999999999 63.858416999999996 0 0 0
180 0 8 -1.05 10.644343 8.796274999999998 63.82158199999999 0 0 0
194 0 8 -1.05 10.644343 10.842604999999999 61.775251999999995 0 0 0
192 0 8 -1.05 8.598012999999998 10.842604999999999 63.82158199999999 0 0 0
179 0 8 -1.05 8.598012999999998 8.796274999999998 61.775251999999995 0 0 0
178 2 7 1.575 8.561177999999998 8.759439999999998 63.858416999999996 0 0 0
635 2 7 1.575 8.561177999999998 10.879439999999999 61.73841699999999 0 0 0
329 2 6 1.05 10.681178 8.759439999999998 61.73841699999999 0 0 0
787 2 6 1.05 10.681178 10.879439999999999 63.858416999999996 0 0 0
91 0 8 -1.05 0.04434199999999855 4.482605 70.18158199999998 0 0 0
90 0 8 -1.05 0.04434199999999855 2.4362749999999993 68.135252 0 0 0
68 2 7 1.575 0.08117799999999864 4.51944 68.09841699999998 0 0 0
92 2 6 1.05 0.08117799999999864 2.3994399999999994 70.21841699999999 0 0 0
93 1 7 1.575 1.1411779999999991 5.57944 71.27841699999999 0 0 0
58 0 8 -1.05 0.11801299999999859 6.602605 68.06158199999999 0 0 0
69 0 8 -1.05 0.11801299999999859 4.556275 66.01525199999999 0 0 0
70 0 8 -1.05 2.1643429999999997 4.556275 68.06158199999999 0 0 0
60 0 8 -1.05 2.1643429999999997 6.602605 66.01525199999999 0 0 0
57 2 7 1.575 0.08117799999999864 6.639439999999998 65.978417 0 0 0
982 0 8 -1.05 2.1643429999999997 2.3626049999999985 70.25525199999998 0 1 0
967 0 8 -1.05 0.11801299999999859 0.3162749999999974 70.25525199999998 0 1 0
944 0 8 -1.05 0.04434199999999855 0.2426039999999965 65.94158099999999 0 1 0
947 1 7 1.575 1.1411779999999991 1.3394399999999997 67.038417 0 1 0
244 0 8 -1.05 4.358013000000001 4.556275 70.25525199999998 0 0 0
231 0 8 -1.05 4.284343000000001 6.676274999999998 68.135252 0 0 0
236 0 8 -1.05 6.478012999999999 2.4362749999999993 70.18158199999998 0 0 0
237 0 8 -1.05 6.478012999999999 4.482605 68.135252 0 0 0
225 0 8 -1.05 6.404343 6.602605 70.25525199999998 0 0 0
229 0 8 -1.05 2.2380129999999996 6.676274999999998 70.18158199999998 0 0 0
235 2 6 1.05 6.441177999999999 4.51944 70.21841699999999 0 0 0
209 2 6 1.05 2.2011779999999996 6.639439999999998 68.09841699999998 0 0 0
233 2 7 1.575 4.321178000000001 6.639439999999998 70.21841699999999 0 0 0
214 2 6 1.05 6.441177999999999 2.3994399999999994 68.09841699999998 0 0 0
226 1 7 1.575 7.5011779999999995 7.69944 69.158417 0 0 0
243 1 7 1.575 3.261178 3.45944 69.158417 0 0 0
220 0 8 -1.05 2.2380129999999996 2.4362749999999993 65.94158099999999 0 0 0
203 0 8 -1.05 6.478012999999999 6.676274999999998 65.94158099999999 0 0 0
221 0 8 -1.05 4.284343000000001 4.482605 65.94158099999999 0 0 0
222 2 7 1.575 4.321178000000001 2.3994399999999994 65.978417 0 0 0
219 2 6 1.05 2.2011779999999996 4.51944 65.978417 0 0 0
224 1 7 1.575 5.381178 5.57944 67.038417 0 0 0
210 1 7 1.575 3.261178 7.69944 64.91841699999998 0 0 0
215 1 7 1.575 7.5011779999999995 3.45944 64.91841699999998 0 0 0
1120 0 8 -1.05 4.284343000000001 0.2426039999999965 70.18158199999998 0 1 0
1118 0 8 -1.05 2.2380129999999996 0.2426039999999965 68.135252 0 1 0
1099 2 7 1.575 4.321178000000001 0.27943999999999747 68.09841699999998 0 1 0
1116 2 7 1.575 2.2011779999999996 0.27943999999999747 70.21841699999999 0 1 0
1122 1 7 1.575 5.381178 1.3394399999999997 71.27841699999999 0 1 0
1101 0 8 -1.05 6.404343 2.3626049999999985 66.01525199999999 0 1 0
1089 0 8 -1.05 6.404343 0.3162749999999974 68.06158199999999 0 1 0
1100 0 8 -1.05 4.358013000000001 0.3162749999999974 66.01525199999999 0 1 0
1111 0 8 -1.05 4.358013000000001 2.3626049999999985 68.06158199999999 0 1 0
1090 2 6 1.05 6.441177999999999 0.27943999999999747 65.978417 0 1 0
239 0 8 -1.05 8.524341999999999 4.482605 70.18158199999998 0 0 0
238 0 8 -1.05 8.524341999999999 2.4362749999999993 68.135252 0 0 0
216 2 6 1.05 8.561177999999998 4.51944 68.09841699999998 0 0 0
240 2 6 1.05 8.561177999999998 2.3994399999999994 70.21841699999999 0 0 0
241 1 7 1.575 9.621178 5.57944 71.27841699999999 0 0 0
206 0 8 -1.05 8.598012999999998 6.602605 68.06158199999999 0 0 0
217 0 8 -1.05 8.598012999999998 4.556275 66.01525199999999 0 0 0
218 0 8 -1.05 10.644343 4.556275 68.06158199999999 0 0 0
208 0 8 -1.05 10.644343 6.602605 66.01525199999999 0 0 0
205 2 7 1.575 8.561177999999998 6.639439999999998 65.978417 0 0 0
1130 0 8 -1.05 10.644343 2.3626049999999985 70.25525199999998 0 1 0
1115 0 8 -1.05 8.598012999999998 0.3162749999999974 70.25525199999998 0 1 0
1092 0 8 -1.05 8.524341999999999 0.2426039999999965 65.94158099999999 0 1 0
1095 1 7 1.575 9.621178 1.3394399999999997 67.038417 0 1 0
377 0 8 -1.05 10.718013 6.676274999999998 70.18158199999998 0 0 0
357 2 7 1.575 10.681178 6.639439999999998 68.09841699999998 0 0 0
391 1 7 1.575 11.741178000000001 3.45944 69.158417 0 0 0
368 0 8 -1.05 10.718013 2.4362749999999993 65.94158099999999 0 0 0
367 2 6 1.05 10.681178 4.51944 65.978417 0 0 0
358 1 7 1.575 11.741178000000001 7.69944 64.91841699999998 0 0 0
1266 0 8 -1.05 10.718013 0.2426039999999965 68.135252 0 1 0
1264 2 7 1.575 10.681178 0.27943999999999747 70.21841699999999 0 1 0
94 0 8 -1.05 2.1643429999999997 10.842604999999999 70.25525199999998 0 0 0
79 0 8 -1.05 0.11801299999999859 8.796274999999998 70.25525199999998 0 0 0
56 0 8 -1.05 0.04434199999999855 8.722603999999997 65.94158099999999 0 0 0
59 1 7 1.575 1.1411779999999991 9.81944 67.038417 0 0 0
534 0 8 -1.05 0.04434199999999855 10.916274999999999 68.135252 0 0 0
536 2 6 1.05 0.08117799999999864 10.879439999999999 70.21841699999999 0 0 0
232 0 8 -1.05 4.284343000000001 8.722603999999997 70.18158199999998 0 0 0
230 0 8 -1.05 2.2380129999999996 8.722603999999997 68.135252 0 0 0
211 2 6 1.05 4.321178000000001 8.759439999999998 68.09841699999998 0 0 0
228 2 7 1.575 2.2011779999999996 8.759439999999998 70.21841699999999 0 0 0
234 1 7 1.575 5.381178 9.81944 71.27841699999999 0 0 0
213 0 8 -1.05 6.404343 10.842604999999999 66.01525199999999 0 0 0
201 0 8 -1.05 6.404343 8.796274999999998 68.06158199999999 0 0 0
212 0 8 -1.05 4.358013000000001 8.796274999999998 66.01525199999999 0 0 0
223 0 8 -1.05 4.358013000000001 10.842604999999999 68.06158199999999 0 0 0
202 2 7 1.575 6.441177999999999 8.759439999999998 65.978417 0 0 0
680 0 8 -1.05 6.478012999999999 10.916274999999999 70.18158199999998 0 0 0
658 2 7 1.575 6.441177999999999 10.879439999999999 68.09841699999998 0 0 0
687 1 7 1.575 3.261178 11.939440000000001 69.158417 0 0 0
664 0 8 -1.05 2.2380129999999996 10.916274999999999 65.94158099999999 0 0 0
666 2 7 1.575 4.321178000000001 10.879439999999999 65.978417 0 0 0
659 1 7 1.575 7.5011779999999995 11.939440000000001 64.91841699999998 0 0 0
242 0 8 -1.05 10.644343 10.842604999999999 70.25525199999998 0 0 0
227 0 8 -1.05 8.598012999999998 8.796274999999998 70.25525199999998 0 0 0
204 0 8 -1.05 8.524341999999999 8.722603999999997 65.94158099999999 0 0 0
207 1 7 1.575 9.621178 9.81944 67.038417 0 0 0
682 0 8 -1.05 8.524341999999999 10.916274999999999 68.135252 0 0 0
684 2 7 1.575 8.561177999999998 10.879439999999999 70.21841699999999 0 0 0
378 0 8 -1.05 10.718013 8.722603999999997 68.135252 0 0 0
376 2 6 1.05 10.681178 8.759439999999998 70.21841699999999 0 0 0
835 1 7 1.575 11.741178000000001 11.939440000000001 69.158417 0 0 0
812 0 8 -1.05 10.718013 10.916274999999999 65.94158099999999 0 0 0
115 0 8 -1.05 0.11801299999999859 4.556275 74.49525199999998 0 0 0
101 0 8 -1.05 0.04434199999999855 6.676274999999998 72.37525199999999 0 0 0
106 0 8 -1.05 2.1643429999999997 6.602605 74.49525199999998 0 0 0
103 2 6 1.05 0.08117799999999864 6.639439999999998 74.458417 0 0 0
990 0 8 -1.05 0.04434199999999855 0.2426039999999965 74.421581 0 1 0
995 0 8 -1.05 2.1643429999999997 0.3162749999999974 72.30158199999998 0 1 0
1002 0 8 -1.05 0.11801299999999859 2.3626049999999985 72.30158199999998 0 1 0
992 2 6 1.05 0.08117799999999864 0.27943999999999747 72.33841699999998 0 1 0
267 0 8 -1.05 2.2380129999999996 4.482605 72.37525199999999 0 0 0
257 0 8 -1.05 4.358013000000001 6.602605 72.30158199999998 0 0 0
266 0 8 -1.05 2.2380129999999996 2.4362749999999993 74.421581 0 0 0
268 0 8 -1.05 4.284343000000001 2.4362749999999993 72.37525199999999 0 0 0
247 0 8 -1.05 6.478012999999999 6.676274999999998 74.421581 0 0 0
269 0 8 -1.05 4.284343000000001 4.482605 74.421581 0 0 0
260 0 8 -1.05 6.404343 4.556275 72.30158199999998 0 0 0
245 2 7 1.575 6.441177999999999 6.639439999999998 72.33841699999998 0 0 0
264 2 6 1.05 2.2011779999999996 2.3994399999999994 72.33841699999998 0 0 0
270 2 7 1.575 4.321178000000001 2.3994399999999994 74.458417 0 0 0
265 2 7 1.575 2.2011779999999996 4.51944 74.458417 0 0 0
271 2 6 1.05 4.321178000000001 4.51944 72.33841699999998 0 0 0
256 1 7 1.575 3.261178 7.69944 73.398417 0 0 0
261 1 7 1.575 7.5011779999999995 3.45944 73.398417 0 0 0
1147 0 8 -1.05 6.404343 2.3626049999999985 74.49525199999998 0 1 0
1146 0 8 -1.05 4.358013000000001 0.3162749999999974 74.49525199999998 0 1 0
1136 0 8 -1.05 6.478012999999999 0.2426039999999965 72.37525199999999 0 1 0
1134 2 7 1.575 6.441177999999999 0.27943999999999747 74.458417 0 1 0
263 0 8 -1.05 8.598012999999998 4.556275 74.49525199999998 0 0 0
249 0 8 -1.05 8.524341999999999 6.676274999999998 72.37525199999999 0 0 0
254 0 8 -1.05 10.644343 6.602605 74.49525199999998 0 0 0
251 2 6 1.05 8.561177999999998 6.639439999999998 74.458417 0 0 0
1138 0 8 -1.05 8.524341999999999 0.2426039999999965 74.421581 0 1 0
1143 0 8 -1.05 10.644343 0.3162749999999974 72.30158199999998 0 1 0
1150 0 8 -1.05 8.598012999999998 2.3626049999999985 72.30158199999998 0 1 0
1140 2 7 1.575 8.561177999999998 0.27943999999999747 72.33841699999998 0 1 0
415 0 8 -1.05 10.718013 4.482605 72.37525199999999 0 0 0
414 0 8 -1.05 10.718013 2.4362749999999993 74.421581 0 0 0
412 2 6 1.05 10.681178 2.3994399999999994 72.33841699999998 0 0 0
413 2 7 1.575 10.681178 4.51944 74.458417 0 0 0
404 1 7 1.575 11.741178000000001 7.69944 73.398417 0 0 0
102 0 8 -1.05 0.04434199999999855 8.722603999999997 74.421581 0 0 0
107 0 8 -1.05 2.1643429999999997 8.796274999999998 72.30158199999998 0 0 0
114 0 8 -1.05 0.11801299999999859 10.842604999999999 72.30158199999998 0 0 0
104 2 7 1.575 0.08117799999999864 8.759439999999998 72.33841699999998 0 0 0
259 0 8 -1.05 6.404343 10.842604999999999 74.49525199999998 0 0 0
258 0 8 -1.05 4.358013000000001 8.796274999999998 74.49525199999998 0 0 0
248 0 8 -1.05 6.478012999999999 8.722603999999997 72.37525199999999 0 0 0
246 2 6 1.05 6.441177999999999 8.759439999999998 74.458417 0 0 0
710 0 8 -1.05 2.2380129999999996 10.916274999999999 74.421581 0 0 0
712 0 8 -1.05 4.284343000000001 10.916274999999999 72.37525199999999 0 0 0
708 2 7 1.575 2.2011779999999996 10.879439999999999 72.33841699999998 0 0 0
714 2 7 1.575 4.321178000000001 10.879439999999999 74.458417 0 0 0
705 1 7 1.575 7.5011779999999995 11.939440000000001 73.398417 0 0 0
250 0 8 -1.05 8.524341999999999 8.722603999999997 74.421581 0 0 0
255 0 8 -1.05 10.644343 8.796274999999998 72.30158199999998 0 0 0
262 0 8 -1.05 8.598012999999998 10.842604999999999 72.30158199999998 0 0 0
252 2 7 1.575 8.561177999999998 8.759439999999998 72.33841699999998 0 0 0
858 0 8 -1.05 10.718013 10.916274999999999 74.421581 0 0 0
856 2 7 1.575 10.681178 10.879439999999999 72.33841699999998 0 0 0
143 2 7 1.575 0.08117799999999864 4.51944 76.578417 0 0 0
142 0 8 -1.05 0.04434199999999855 2.4362749999999993 76.615252 0 0 0
127 0 9 -0.975 0.18606545666746926 6.543834862873925 76.34253419552856 0 0 0
146 0 9 -0.975 2.0922508431489906 4.639009931906717 76.35665834839929 0 0 0
144 0 3 -0.804 1.846575527656381 6.386980181029916 78.46097983376158 0 0 0
139 0 3 -0.804 0.36481880919487913 4.891025863449679 78.45689321507912 0 0 0
147 0 10 0.425 2.5929030908442696 4.1219698029119325 77.1013540645707 0 0 0
280 0 2 -0.123 5.372932059082589 9.787893813399307 80.16809567115165 0 0 0
993 1 7 1.575 1.1411779999999991 1.3394399999999997 75.51841699999999 0 1 0
277 2 7 1.575 2.2011779999999996 6.639439999999998 76.578417 0 0 0
285 2 7 1.575 6.441177999999999 2.3994399999999994 76.578417 0 0 0
286 0 8 -1.05 6.478012999999999 4.482605 76.615252 0 0 0
281 0 8 -1.05 4.284343000000001 6.676274999999998 76.615252 0 0 0
272 1 7 1.575 5.381178 5.57944 75.51841699999999 0 0 0
274 0 10 0.425 6.853826388003392 8.3528641175981 77.0982880520198 0 0 0
1171 2 7 1.575 4.321178000000001 0.27943999999999747 76.578417 0 1 0
1166 0 8 -1.05 2.2380129999999996 0.2426039999999965 76.615252 0 1 0
1161 0 9 -0.975 6.332568398954174 0.39285109964917286 76.35218715494516 0 1 0
1184 0 9 -0.975 4.42824944971899 2.3023255767871733 76.34556106740501 0 1 0
1170 0 3 -0.804 6.116969141083793 2.1108337318364727 78.45921487562369 0 1 0
1164 0 3 -0.804 4.647748483306887 0.6054771738870758 78.45256735718381 0 1 0
1172 0 10 0.425 3.910655814591504 2.808566858830397 77.08508958010796 0 1 0
291 2 7 1.575 8.561177999999998 4.51944 76.578417 0 0 0
290 0 8 -1.05 8.524341999999999 2.4362749999999993 76.615252 0 0 0
275 0 9 -0.975 8.674017299149575 6.516044028405617 76.40375674291619 0 0 0
294 0 9 -0.975 10.568131801869908 4.62123005486091 76.36418238382389 0 0 0
292 0 3 -0.804 10.36206912016618 6.304935166174431 78.4663429701479 0 0 0
287 0 3 -0.804 8.857329487040344 4.814301381002951 78.47003439949825 0 0 0
295 0 10 0.425 11.101441768289376 4.100846365601713 77.07846801225148 0 0 0
293 0 10 0.425 8.144424125066609 7.064447360767321 77.09202105745169 0 0 0
1141 1 7 1.575 9.621178 1.3394399999999997 75.51841699999999 0 1 0
425 2 7 1.575 10.681178 6.639439999999998 76.578417 0 0 0
1314 0 8 -1.05 10.718013 0.2426039999999965 76.615252 0 1 0
105 1 7 1.575 1.1411779999999991 9.81944 75.51841699999999 0 0 0
586 0 8 -1.05 0.04434199999999855 10.916274999999999 76.615252 0 0 0
591 0 10 0.425 2.628602006678152 12.584211012196153 77.11503042723285 0 0 0
283 2 7 1.575 4.321178000000001 8.759439999999998 76.578417 0 0 0
278 0 8 -1.05 2.2380129999999996 8.722603999999997 76.615252 0 0 0
273 0 9 -0.975 6.3037935679623835 8.882815418762613 76.40949746618858 0 0 0
296 0 9 -0.975 4.400461956111156 10.77743188260193 76.34862275636125 0 0 0
282 0 3 -0.804 6.05579396804352 10.588595338428124 78.46023819030997 0 0 0
276 0 3 -0.804 4.567432286876425 9.084938865476671 78.46971242367702 0 0 0
284 0 10 0.425 3.9040494760565263 11.304583601293835 77.08591246032479 0 0 0
729 2 7 1.575 6.441177999999999 10.879439999999999 76.578417 0 0 0
253 1 7 1.575 9.621178 9.81944 75.51841699999999 0 0 0
734 0 8 -1.05 8.524341999999999 10.916274999999999 76.615252 0 0 0
739 0 10 0.425 11.098301345664652 12.578668444498192 77.0949670880966 0 0 0
426 0 8 -1.05 10.718013 8.722603999999997 76.615252 0 0 0
140 0 1 0.731 1.1214719245100695 5.62050478461836 79.07105372166069 0 0 0
141 0 2 -0.123 1.1570760089352259 5.5824033632060726 80.16676757176207 0 0 0
1167 0 1 0.731 5.387262335732011 1.3529079137661175 79.06769219832651 0 1 0
1168 0 2 -0.123 5.394704757748154 1.341913793796133 80.164418274287 0 1 0
288 0 1 0.731 9.605098747458147 5.566852734842267 79.07120347277818 0 0 0
289 0 2 -0.123 9.592897704595341 5.58333202955748 80.16920163626858 0 0 0
279 0 1 0.731 5.333546101727039 9.819293457488165 79.0704355598204 0 0 0
1320 0 10 0.425 12.371365215147046 2.8343192205499403 77.116453904679 0 1 0
432 0 10 0.425 12.376137086328281 11.300077378498285 77.09589275753646 0 0 0
466 0 1 0.731 3.261247338147317 16.18675508256246 57.11523846742308 0 0 0
465 0 2 -0.123 3.273823812070788 16.17859563542199 56.01562751737036 0 0 0
614 0 1 0.731 11.748086104977485 16.200605121182814 57.11064116886278 0 0 0
613 0 2 -0.123 11.764702146922524 16.183029097490326 56.010482553554425 0 0 0
910 0 1 0.731 3.2469306933974753 24.64696058400731 57.124867527744804 0 0 0
909 0 2 -0.123 3.2233669053452716 24.670175084917474 56.0305378548802 0 0 0
604 0 1 0.731 7.493337612708204 20.465051808002464 57.117411516138425 0 0 0
603 0 2 -0.123 7.540456548226809 20.41192575678213 56.02039258786191 0 0 0
1058 0 1 0.731 11.725662577844158 24.672446010949237 57.13613397286066 0 0 0
1057 0 2 -0.123 11.75859457043878 24.635941347090704 56.041929923377026 0 0 0
1042 0 3 -0.804 12.477380700746348 25.41495781430899 57.74427363653316 0 0 0
463 2 7 1.575 0.08117799999999864 12.99944 59.618416999999994 0 0 0
446 0 8 -1.05 0.11801299999999859 15.082605000000001 59.581582000000004 0 0 0
467 0 8 -1.05 2.1643429999999997 13.036275 59.581582000000004 0 0 0
464 0 3 -0.804 2.5033696628239657 15.444180486089866 57.71671433023878 0 0 0
600 0 9 -0.975 4.205971639588488 15.240837138561837 59.79154283240864 0 0 0
608 0 9 -0.975 6.566861923489338 12.885597795143116 59.84572617229259 0 0 0
596 2 7 1.575 2.2011779999999996 15.119439999999997 59.618416999999994 0 0 0
620 1 7 1.575 7.5011779999999995 16.17944 60.678416999999996 0 0 0
599 0 10 0.425 4.73424368355943 14.703782524607904 59.091076810644225 0 0 0
605 0 10 0.425 6.038581233731241 13.40457325152124 59.12271693092477 0 0 0
598 0 3 -0.804 12.496171047870426 16.955032616415693 57.71110166907048 0 0 0
611 2 7 1.575 8.561177999999998 12.99944 59.618416999999994 0 0 0
594 0 8 -1.05 8.598012999999998 15.082605000000001 59.581582000000004 0 0 0
615 0 8 -1.05 10.644343 13.036275 59.581582000000004 0 0 0
612 0 3 -0.804 10.996940568449846 15.453588622878007 57.71555375347458 0 0 0
744 2 7 1.575 10.681178 15.119439999999997 59.618416999999994 0 0 0
1192 0 9 -0.975 12.707787699657704 23.704022368063775 59.84488148004603 0 0 0
1233 1 7 1.575 11.741178000000001 20.41944 60.678416999999996 0 0 0
450 0 3 -0.804 3.996731338762855 16.947946500006307 57.72335688199536 0 0 0
1188 2 7 1.575 10.681178 23.599439999999998 59.618416999999994 0 0 0
907 2 7 1.575 0.08117799999999864 21.47944 59.618416999999994 0 0 0
890 0 8 -1.05 0.11801299999999859 23.562605 59.581582000000004 0 0 0
911 0 8 -1.05 2.1643429999999997 21.516275 59.581582000000004 0 0 0
908 0 3 -0.804 2.5054046576589 23.883328826060218 57.7266819784018 0 0 0
597 0 9 -0.975 2.289637655722409 17.15095860916214 59.83326208168313 0 0 0
602 2 7 1.575 4.321178000000001 17.23944 59.618416999999994 0 0 0
593 0 8 -1.05 6.404343 17.276275 59.581582000000004 0 0 0
616 0 8 -1.05 4.358013000000001 19.322605 59.581582000000004 0 0 0
601 0 3 -0.804 6.727735975808463 19.734494088112676 57.72945875334036 0 0 0
595 0 10 0.425 1.7873575576324912 17.65362892534974 59.08554410577872 0 0 0
1044 0 9 -0.975 4.219364502370795 23.66420438410208 59.84128569101343 0 0 0
1052 0 9 -0.975 6.538761884015725 21.371057689867808 59.85285624733243 0 0 0
1040 2 7 1.575 2.2011779999999996 23.599439999999998 59.618416999999994 0 0 0
1051 2 7 1.575 6.441177999999999 19.35944 59.618416999999994 0 0 0
1064 1 7 1.575 7.5011779999999995 24.65944 60.678416999999996 0 0 0
1085 1 7 1.575 3.261178 20.41944 60.678416999999996 0 0 0
1043 0 10 0.425 4.74583719671369 23.17814933794121 59.097199830334375 0 0 0
1053 0 10 0.425 8.970261217011851 18.95016957455725 59.13129334381641 0 0 0
1049 0 10 0.425 6.038006789725116 21.893530037013914 59.110333356298675 0 0 0
606 0 3 -0.804 8.225309073333042 21.231967225375584 57.71590127359329 0 0 0
1054 0 9 -0.975 8.436608595922245 19.482000958495817 59.84126302078514 0 0 0
1055 2 7 1.575 8.561177999999998 21.47944 59.618416999999994 0 0 0
1038 0 8 -1.05 8.598012999999998 23.562605 59.581582000000004 0 0 0
1059 0 8 -1.05 10.644343 21.516275 59.581582000000004 0 0 0
1056 0 3 -0.804 10.970337780579616 23.93714408883306 57.74715981291149 0 0 0
745 0 9 -0.975 10.79225573565118 17.127074939685865 59.78562600365218 0 0 0
743 0 10 0.425 10.270842896955951 17.64699133276696 59.06886578182682 0 0 0
905 0 10 0.425 0.48481892610572475 18.957149179884325 59.11581950551145 0 0 0
748 0 9 -0.975 12.704662754627742 15.22681213950562 59.83039824049096 0 0 0
894 0 3 -0.804 4.02596467345774 25.365192144673365 57.72594629274967 0 0 0
473 0 8 -1.05 0.04434199999999855 15.156274999999997 63.89525199999999 0 0 0
486 0 8 -1.05 0.04434199999999855 12.962605 61.701581999999995 0 0 0
489 1 7 1.575 1.1411779999999991 14.05944 62.798417 0 0 0
644 0 8 -1.05 4.358013000000001 13.036275 61.775251999999995 0 0 0
640 0 8 -1.05 2.2380129999999996 12.962605 63.89525199999999 0 0 0
629 0 8 -1.05 4.358013000000001 15.082605000000001 63.82158199999999 0 0 0
617 0 8 -1.05 6.404343 15.082605000000001 61.775251999999995 0 0 0
626 0 8 -1.05 2.2380129999999996 15.156274999999997 61.701581999999995 0 0 0
631 0 8 -1.05 6.404343 13.036275 63.82158199999999 0 0 0
618 2 6 1.05 6.441177999999999 15.119439999999997 63.858416999999996 0 0 0
632 2 7 1.575 6.441177999999999 12.99944 61.73841699999999 0 0 0
628 2 7 1.575 4.321178000000001 15.119439999999997 61.73841699999999 0 0 0
643 2 7 1.575 4.321178000000001 12.99944 63.858416999999996 0 0 0
621 0 8 -1.05 8.524341999999999 15.156274999999997 63.89525199999999 0 0 0
634 0 8 -1.05 8.524341999999999 12.962605 61.701581999999995 0 0 0
637 1 7 1.575 9.621178 14.05944 62.798417 0 0 0
788 0 8 -1.05 10.718013 12.962605 63.89525199999999 0 0 0
774 0 8 -1.05 10.718013 15.156274999999997 61.701581999999995 0 0 0
476 0 8 -1.05 2.1643429999999997 17.276275 63.82158199999999 0 0 0
490 0 8 -1.05 2.1643429999999997 19.322605 61.775251999999995 0 0 0
488 0 8 -1.05 0.11801299999999859 19.322605 63.82158199999999 0 0 0
475 0 8 -1.05 0.11801299999999859 17.276275 61.775251999999995 0 0 0
474 2 7 1.575 0.08117799999999864 17.23944 63.858416999999996 0 0 0
917 0 8 -1.05 0.04434199999999855 23.636274999999998 63.89525199999999 0 0 0
930 0 8 -1.05 0.04434199999999855 21.442605 61.701581999999995 0 0 0