LAMMPS (29 Sep 2021 - Update 2)
variable  rand equal round(random(0,1e7,452345))
variable layer index 17

variable temp index 500000 450000 405000 364500 328050 295245 265720 239148 215233 193709 174338 156904 141213 127091 114381 102942 92647 83382 75043 67538 60784 54705 49234 44310 39879 35891 32301 29070 26163 23546 21191 19071 17163 15446 13901 12510 11259 10133 9119 8207 7386 6647 5982 5383 4844 4359 3923 3530 3177 2859 2573 2315 2083 1874 1686 1517 1365 1228 1105 994 894 804 723 650 585 526 473 425 382 343 308 277 249 224 201 180 162 145 130 117 105 94 84 75 67 60 54 48 43 38 34 30 27 24 21 18 16 14 12 10 9 8 7 6 5 4 3 2 1

variable type string int_full

include settings.lmp
units              real
atom_style         full
timestep	   0.5
boundary	   p p f

pair_style         lj/cut/coul/long 12.0
bond_style         harmonic
angle_style        harmonic
dihedral_style     fourier
improper_style     cvff
kspace_style       pppm 1.0e-6
kspace_modify      slab 3.0

pair_modify        mix arithmetic
special_bonds      amber
neighbor           2.0 bin
neigh_modify       every 1 delay 0 check yes

read_data 001-dbt_3x3_${layer}L_fa_${type}_init.data
read_data 001-dbt_3x3_17L_fa_${type}_init.data
read_data 001-dbt_3x3_17L_fa_int_full_init.data
Reading data file ...
  orthogonal box = (0.0000000 0.0000000 35.929417) to (25.440000 25.440000 100.26742)
  2 by 2 by 5 MPI processor grid
  reading atoms ...
  1332 atoms
  reading velocities ...
  1332 velocities
  scanning bonds ...
  3 = max bonds/atom
  scanning angles ...
  3 = max angles/atom
  scanning impropers ...
  1 = max impropers/atom
  reading bonds ...
  180 bonds
  reading angles ...
  324 angles
  reading impropers ...
  36 impropers
Finding 1-2 1-3 1-4 neighbors ...
  special bond factors lj:    0        0        0.5     
  special bond factors coul:  0        0        0.8333333333333334
     3 = max # of 1-2 neighbors
     2 = max # of 1-3 neighbors
     2 = max # of 1-4 neighbors
     3 = max # of special neighbors
  special bonds CPU = 0.001 seconds
  read_data CPU = 0.022 seconds

include ff_formic_acid_fe304.param
#####################-----formic_acid-----######################################

mass  1   12.011   # Sp2 C carbonyl group
mass  2    1.008   # H bonded to non-sp3 carbon with 2 electrwd. group
mass  3   15.9994  # Oxygen with one connected atom
mass  4   15.9994  # Oxygen in hydroxyl group
mass  5    1.008   # Hydroxyl group

pair_coeff  1  1   0.0988  3.31521230994  # c
pair_coeff  2  2   0.0161  2.44729877873  # h5
pair_coeff  3  3   0.1463  3.04812087425  # o
pair_coeff  4  4   0.0930  3.24287133403  # oh
pair_coeff  5  5   0.0047  0.537924646013 # ho

bond_coeff  1  361.80  1.105  # c-h5
bond_coeff  2  652.57  1.218  # c=o
bond_coeff  3  383.13  1.351  # c-oh
bond_coeff  4  563.51  0.973  # o-h

angle_coeff  1   51.617  106.550  # c-oh-ho
angle_coeff  2   65.930  123.650  # h5-c=o
angle_coeff  3   65.262  109.490  # h5-c-oh
angle_coeff  4  115.745  122.100  # o=c-oh

dihedral_coeff  1  1  2.3  2  180.0               # h5-c-oh-ho
dihedral_coeff  2  2  2.3  2  180.0  1.9  1  0.0  # o=c-oh-ho

                              #  h5
                              #  |
improper_coeff  1  10.5 -1 2  #  c
                              # / \
                              # o  oh

#####################-----formate-----###########################################

angle_coeff  5   118.817 130.250  # o-c-o

                              #  h5
                              #  |
improper_coeff  2  10.5 -1 2  #  c
                              # / \
                              # o  o

#####################-----magnetite-----#########################################

mass  6   55.845   # Iron(II)
mass  7   55.845   # Iron(III)
mass  8   15.9994  # Bridging oxygen
mass  9   15.9994  # Hydroxyl oxygen
mass  10   1.008   # Hydroxyl hydrogen

pair_coeff  6  6   9.0298e-07  4.90620  # fe2
pair_coeff  7  7   9.0298e-07  4.90620  # fe3
pair_coeff  8  8   0.1554      3.16554  # ob
pair_coeff  9  9   0.1554      3.16554  # oh
pair_coeff  10 10  0.0         0.0      # ho

bond_coeff  5  554.1349  1.0   # oh-ho
bond_coeff  6    0.0     2.08  # fe-oh (dummy bond)

angle_coeff  6   30.0  109.470  # fe-oh-ho

##################################################################################

dump dmp all custom 10000 swap_${layer}L_${type}.lammpstrj id mol type q x y z
dump dmp all custom 10000 swap_17L_${type}.lammpstrj id mol type q x y z
dump dmp all custom 10000 swap_17L_int_full.lammpstrj id mol type q x y z
dump_modify dmp sort id

group fe type 7 6
468 atoms in group fe

compute coord fe coord/atom cutoff 2.0
dump coord fe custom 1 fe_${layer}L.coord id type c_coord
dump coord fe custom 1 fe_17L.coord id type c_coord
dump_modify coord sort id
run 0
WARNING: No fixes defined, atoms won't move (../verlet.cpp:55)
PPPM initialization ...
  using 12-bit tables for long-range coulomb (../kspace.cpp:340)
  G vector (1/distance) = 0.28992484
  grid = 40 40 160
  stencil order = 5
  estimated absolute RMS force accuracy = 0.0003575219
  estimated relative force accuracy = 1.0766666e-06
  using double precision KISS FFT
  3d grid and FFT values/proc = 100920 46800
Neighbor list info ...
  update every 1 steps, delay 0 steps, check yes
  max neighbors/atom: 2000, page size: 100000
  master list distance cutoff = 14
  ghost atom cutoff = 14
  binsize = 7, bins = 4 4 10
  2 neighbor lists, perpetual/occasional/extra = 1 1 0
  (1) pair lj/cut/coul/long, perpetual
      attributes: half, newton on
      pair build: half/bin/newton
      stencil: half/bin/3d
      bin: standard
  (2) compute coord/atom, occasional
      attributes: full, newton on
      pair build: full/bin
      stencil: full/bin/3d
      bin: standard
Per MPI rank memory allocation (min/avg/max) = 12.95 | 14.74 | 19.36 Mbytes
Step Temp E_pair E_mol TotEng Press 
       0            0   -199665.29    14963.752   -184701.54   -43005.493 
Loop time of 9.60815e-06 on 20 procs for 0 steps with 1332 atoms

102.5% CPU use with 20 MPI tasks x no OpenMP threads

MPI task timing breakdown:
Section |  min time  |  avg time  |  max time  |%varavg| %total
---------------------------------------------------------------
Pair    | 0          | 0          | 0          |   0.0 |  0.00
Bond    | 0          | 0          | 0          |   0.0 |  0.00
Kspace  | 0          | 0          | 0          |   0.0 |  0.00
Neigh   | 0          | 0          | 0          |   0.0 |  0.00
Comm    | 0          | 0          | 0          |   0.0 |  0.00
Output  | 0          | 0          | 0          |   0.0 |  0.00
Modify  | 0          | 0          | 0          |   0.0 |  0.00
Other   |            | 9.608e-06  |            |       |100.00

Nlocal:        66.6000 ave         216 max           0 min
Histogram: 8 0 8 0 0 0 0 0 0 4
Nghost:        2084.60 ave        3163 max         851 min
Histogram: 8 0 0 0 0 0 0 0 8 4
Neighs:        27338.0 ave      102347 max           0 min
Histogram: 9 3 4 0 0 0 0 0 0 4
FullNghs:      54675.9 ave      197755 max           0 min
Histogram: 8 8 0 0 0 0 0 0 0 4

Total # of neighbors = 1093518
Ave neighs/atom = 820.95946
Ave special neighs/atom = 0.43243243
Neighbor list builds = 0
Dangerous builds = 0
variable fet atom c_coord==4
group fet variable fet
144 atoms in group fet
group feo subtract fe fet
324 atoms in group feo
undump coord

variable nfeo equal count(feo)
variable nsteps equal round((${nfeo}*${nfeo})/4)
variable nsteps equal round((324*${nfeo})/4)
variable nsteps equal round((324*324)/4)
variable nsteps_initial equal ${nfeo}*${nfeo}
variable nsteps_initial equal 324*${nfeo}
variable nsteps_initial equal 324*324

set group all mol 0
Setting atom values ...
  1332 settings made for mol
set group fet mol 1
Setting atom values ...
  144 settings made for mol
set group feo mol 2
Setting atom values ...
  324 settings made for mol

variable fet3 atom "gmask(fet) && q == 1.575"
group fet3 dynamic fe var fet3 every 100
dynamic group fet3 defined
variable rfet3 equal count(fet3)/count(fet)

variable feo3 atom "gmask(feo) && q == 1.575"
group feo3 dynamic fe var feo3 every 100
dynamic group feo3 defined
variable rfeo3 equal count(feo3)/count(feo)

variable cnum equal 109

# Initial mc to remove any residuals
fix  swp feo atom/swap 1 1 ${rand} 10000 ke no types 6 7
fix  swp feo atom/swap 1 1 855824 10000 ke no types 6 7
thermo 1000
thermo_style custom step pe f_swp[1] f_swp[2] v_rfet3 v_rfeo3
run ${nsteps_initial}
run 104976
PPPM initialization ...
  using 12-bit tables for long-range coulomb (../kspace.cpp:340)
  G vector (1/distance) = 0.28992484
  grid = 40 40 160
  stencil order = 5
  estimated absolute RMS force accuracy = 0.0003575219
  estimated relative force accuracy = 1.0766666e-06
  using double precision KISS FFT
  3d grid and FFT values/proc = 100920 46800
Per MPI rank memory allocation (min/avg/max) = 11.68 | 13.48 | 18.09 Mbytes
Step PotEng f_swp[1] f_swp[2] v_rfet3 v_rfeo3 
       0   -184701.54            0            0            1   0.66666667 
    1000   -193606.49         1000          396            1   0.66666667 
    2000   -193570.59         2000          771            1   0.66666667 
    3000   -193337.79         3000         1166            1   0.66666667 
    4000   -193619.94         4000         1514            1   0.66666667 
    5000   -193587.86         5000         1878            1   0.66666667 
    6000   -193605.01         6000         2215            1   0.66666667 
    7000   -193686.59         7000         2613            1   0.66666667 
    8000   -193582.02         8000         2956            1   0.66666667 
    9000   -193343.97         9000         3340            1   0.66666667 
   10000   -193633.28        10000         3704            1   0.66666667 
   11000    -193469.2        11000         4050            1   0.66666667 
   12000   -193536.38        12000         4427            1   0.66666667 
   13000   -193375.81        13000         4778            1   0.66666667 
   14000   -193562.65        14000         5157            1   0.66666667 
   15000    -193368.8        15000         5522            1   0.66666667 
   16000   -193393.16        16000         5867            1   0.66666667 
   17000   -193297.15        17000         6251            1   0.66666667 
   18000   -193503.72        18000         6610            1   0.66666667 
   19000   -193674.04        19000         6957            1   0.66666667 
   20000   -193455.69        20000         7295            1   0.66666667 
   21000   -193502.51        21000         7647            1   0.66666667 
   22000   -193505.68        22000         7996            1   0.66666667 
   23000   -193566.55        23000         8335            1   0.66666667 
   24000   -193582.82        24000         8710            1   0.66666667 
   25000   -193401.66        25000         9099            1   0.66666667 
   26000   -193586.46        26000         9478            1   0.66666667 
   27000   -193615.07        27000         9810            1   0.66666667 
   28000   -193546.56        28000        10188            1   0.66666667 
   29000   -193509.71        29000        10551            1   0.66666667 
   30000    -193590.5        30000        10911            1   0.66666667 
   31000   -193473.39        31000        11264            1   0.66666667 
   32000    -193642.5        32000        11597            1   0.66666667 
   33000   -193373.27        33000        11953            1   0.66666667 
   34000   -193513.08        34000        12317            1   0.66666667 
   35000   -193696.91        35000        12714            1   0.66666667 
   36000   -193329.14        36000        13078            1   0.66666667 
   37000   -193622.88        37000        13420            1   0.66666667 
   38000   -193580.15        38000        13745            1   0.66666667 
   39000   -193534.77        39000        14103            1   0.66666667 
   40000   -193500.53        40000        14473            1   0.66666667 
   41000   -193490.68        41000        14834            1   0.66666667 
   42000   -193656.58        42000        15187            1   0.66666667 
   43000   -193588.76        43000        15508            1   0.66666667 
   44000   -193533.31        44000        15869            1   0.66666667 
   45000   -193601.71        45000        16243            1   0.66666667 
   46000   -193497.52        46000        16547            1   0.66666667 
   47000   -193484.81        47000        16922            1   0.66666667 
   48000    -193553.3        48000        17273            1   0.66666667 
   49000   -193519.96        49000        17628            1   0.66666667 
   50000   -193555.96        50000        17982            1   0.66666667 
   51000   -193540.86        51000        18348            1   0.66666667 
   52000   -193532.34        52000        18718            1   0.66666667 
   53000   -193505.61        53000        19090            1   0.66666667 
   54000    -193500.8        54000        19428            1   0.66666667 
   55000   -193530.42        55000        19799            1   0.66666667 
   56000   -193462.19        56000        20160            1   0.66666667 
   57000   -193461.35        57000        20542            1   0.66666667 
   58000   -193531.25        58000        20915            1   0.66666667 
   59000   -193516.28        59000        21271            1   0.66666667 
   60000   -193495.34        60000        21639            1   0.66666667 
   61000   -193557.58        61000        21973            1   0.66666667 
   62000    -193516.7        62000        22328            1   0.66666667 
   63000   -193605.97        63000        22656            1   0.66666667 
   64000   -193629.16        64000        22995            1   0.66666667 
   65000   -193526.04        65000        23325            1   0.66666667 
   66000   -193558.13        66000        23693            1   0.66666667 
   67000   -193398.91        67000        24053            1   0.66666667 
   68000   -193482.61        68000        24430            1   0.66666667 
   69000   -193307.02        69000        24805            1   0.66666667 
   70000   -193459.54        70000        25173            1   0.66666667 
   71000   -193397.31        71000        25565            1   0.66666667 
   72000   -193473.16        72000        25926            1   0.66666667 
   73000   -193660.86        73000        26269            1   0.66666667 
   74000   -193587.46        74000        26620            1   0.66666667 
   75000    -193416.2        75000        26988            1   0.66666667 
   76000   -193457.55        76000        27335            1   0.66666667 
   77000   -193547.48        77000        27701            1   0.66666667 
   78000   -193519.44        78000        28069            1   0.66666667 
   79000   -193519.27        79000        28434            1   0.66666667 
   80000   -193580.64        80000        28802            1   0.66666667 
   81000   -193444.75        81000        29168            1   0.66666667 
   82000   -193607.74        82000        29512            1   0.66666667 
   83000   -193566.44        83000        29854            1   0.66666667 
   84000   -193637.11        84000        30198            1   0.66666667 
   85000   -193501.49        85000        30571            1   0.66666667 
   86000   -193455.46        86000        30908            1   0.66666667 
   87000   -193430.77        87000        31247            1   0.66666667 
   88000   -193489.59        88000        31629            1   0.66666667 
   89000   -193570.84        89000        31986            1   0.66666667 
   90000   -193432.52        90000        32324            1   0.66666667 
   91000   -193566.83        91000        32697            1   0.66666667 
   92000   -193542.33        92000        33064            1   0.66666667 
   93000    -193427.5        93000        33418            1   0.66666667 
   94000   -193560.62        94000        33798            1   0.66666667 
   95000   -193287.12        95000        34160            1   0.66666667 
   96000   -193530.81        96000        34500            1   0.66666667 
   97000   -193539.55        97000        34845            1   0.66666667 
   98000   -193491.33        98000        35225            1   0.66666667 
   99000   -193663.47        99000        35581            1   0.66666667 
  100000   -193494.03       100000        35955            1   0.66666667 
  101000    -193604.4       101000        36327            1   0.66666667 
  102000   -193448.45       102000        36655            1   0.66666667 
  103000   -193535.79       103000        37012            1   0.66666667 
  104000   -193494.71       104000        37376            1   0.66666667 
  104976   -193572.74       104976        37746            1   0.66666667 
Loop time of 2952.11 on 20 procs for 104976 steps with 1332 atoms

Performance: 1.536 ns/day, 15.623 hours/ns, 35.560 timesteps/s
99.4% CPU use with 20 MPI tasks x no OpenMP threads

MPI task timing breakdown:
Section |  min time  |  avg time  |  max time  |%varavg| %total
---------------------------------------------------------------
Pair    | 0.038721   | 39.039     | 144.12     | 826.5 |  1.32
Bond    | 0.036604   | 0.23977    | 0.56861    |  46.7 |  0.01
Kspace  | 438.11     | 543.31     | 582.88     | 222.0 | 18.40
Neigh   | 161.39     | 162.06     | 163.03     |   3.8 |  5.49
Comm    | 29.577     | 34.654     | 39.581     |  63.2 |  1.17
Output  | 0.0091902  | 0.014194   | 0.020624   |   3.2 |  0.00
Modify  | 2167.1     | 2172       | 2176.2     |   7.7 | 73.58
Other   |            | 0.7734     |            |       |  0.03

Nlocal:        66.6000 ave         216 max           0 min
Histogram: 8 0 8 0 0 0 0 0 0 4
Nghost:        2084.60 ave        3163 max         851 min
Histogram: 8 0 0 0 0 0 0 0 8 4
Neighs:        27338.0 ave      102347 max           0 min
Histogram: 9 3 4 0 0 0 0 0 0 4
FullNghs:      54675.9 ave      197755 max           0 min
Histogram: 8 8 0 0 0 0 0 0 0 4

Total # of neighbors = 1093518
Ave neighs/atom = 820.95946
Ave special neighs/atom = 0.43243243
Neighbor list builds = 209952
Dangerous builds = 0
unfix swp

thermo_style custom step temp pe
write_data 001-dbt_3x3_${layer}L_fa_${type}_rand.data
write_data 001-dbt_3x3_17L_fa_${type}_rand.data
write_data 001-dbt_3x3_17L_fa_int_full_rand.data
System init for write_data ...
PPPM initialization ...
  using 12-bit tables for long-range coulomb (../kspace.cpp:340)
  G vector (1/distance) = 0.28992484
  grid = 40 40 160
  stencil order = 5
  estimated absolute RMS force accuracy = 0.0003575219
  estimated relative force accuracy = 1.0766666e-06
  using double precision KISS FFT
  3d grid and FFT values/proc = 100920 46800

variable top_immobile equal bound(all,zmax)
variable top_immobile equal ${top_immobile}-10
variable top_immobile equal 80.267417-10

variable bottom_immobile equal bound(all,zmin)
variable bottom_immobile equal ${bottom_immobile}+10
variable bottom_immobile equal 55.929417+10

region top_immobile block INF INF INF INF ${top_immobile} INF side in units box
region top_immobile block INF INF INF INF 70.267417 INF side in units box
region bottom_immobile block INF INF INF INF INF ${bottom_immobile} side in units box
region bottom_immobile block INF INF INF INF INF 65.929417 side in units box

group top_immobile region top_immobile
486 atoms in group top_immobile
group bottom_immobile region bottom_immobile
486 atoms in group bottom_immobile

group ho type 9 10
144 atoms in group ho
group fa type 1 2 3 4 5
144 atoms in group fa

# Minimize O-H bond
group immobile_1 type 1 2 3 6 7 8
1188 atoms in group immobile_1

group top_ho intersect top_immobile ho
72 atoms in group top_ho
group bottom_ho intersect bottom_immobile ho
72 atoms in group bottom_ho

group top_fa intersect top_immobile fa
72 atoms in group top_fa
group bottom_fa intersect bottom_immobile fa
72 atoms in group bottom_fa

group immo_top_fa subtract all top_fa
1260 atoms in group immo_top_fa
group immo_bottom_fa subtract all bottom_fa
1260 atoms in group immo_bottom_fa

group immo_top_ho subtract all top_ho
1260 atoms in group immo_top_ho
group immo_bottom_ho subtract all bottom_ho
1260 atoms in group immo_bottom_ho

label minimize_temp

  variable ftemp equal v_temp

  # Minimize top formate
  fix freeze immo_top_fa setforce 0.0 0.0 0.0
  minimize 1.0e-6 1.0e-9 1000 10000
PPPM initialization ...
  using 12-bit tables for long-range coulomb (../kspace.cpp:340)
  G vector (1/distance) = 0.28992484
  grid = 40 40 160
  stencil order = 5
  estimated absolute RMS force accuracy = 0.0003575219
  estimated relative force accuracy = 1.0766666e-06
  using double precision KISS FFT
  3d grid and FFT values/proc = 100920 46800
Per MPI rank memory allocation (min/avg/max) = 12.80 | 14.60 | 19.22 Mbytes
Step Temp PotEng 
  104976            0   -193572.74 
  104994            0   -198419.55 
Loop time of 0.215785 on 20 procs for 18 steps with 1332 atoms

99.2% CPU use with 20 MPI tasks x no OpenMP threads

Minimization stats:
  Stopping criterion = energy tolerance
  Energy initial, next-to-last, final = 
     -193572.739838535  -198419.506331586  -198419.548296163
  Force two-norm initial, final = 3997.8919 11.510716
  Force max component initial, final = 414.98719 3.6616622
  Final line search alpha, max atom move = 0.028116132 0.10295178
  Iterations, force evaluations = 18 33

MPI task timing breakdown:
Section |  min time  |  avg time  |  max time  |%varavg| %total
---------------------------------------------------------------
Pair    | 1.3747e-05 | 0.018184   | 0.067044   |  17.8 |  8.43
Bond    | 2.4537e-05 | 9.9865e-05 | 0.00023204 |   0.0 |  0.05
Kspace  | 0.14135    | 0.19022    | 0.20886    |   5.5 | 88.15
Neigh   | 0          | 0          | 0          |   0.0 |  0.00
Comm    | 0.0027488  | 0.0044277  | 0.0060348  |   1.8 |  2.05
Output  | 0          | 0          | 0          |   0.0 |  0.00
Modify  | 1.2359e-05 | 2.6753e-05 | 4.2138e-05 |   0.0 |  0.01
Other   |            | 0.002825   |            |       |  1.31

Nlocal:        66.6000 ave         216 max           0 min
Histogram: 8 0 8 0 0 0 0 0 0 4
Nghost:        2084.60 ave        3163 max         851 min
Histogram: 8 0 0 0 0 0 0 0 8 4
Neighs:        27338.0 ave      102347 max           0 min
Histogram: 9 3 4 0 0 0 0 0 0 4
FullNghs:      54675.9 ave      197755 max           0 min
Histogram: 8 8 0 0 0 0 0 0 0 4

Total # of neighbors = 1093518
Ave neighs/atom = 820.95946
Ave special neighs/atom = 0.43243243
Neighbor list builds = 0
Dangerous builds = 0
  min_modify integrator eulerexplicit tmax 10.0 tmin 0.0 delaystep 5           dtgrow 1.1 dtshrink 0.5 alpha0 0.1 alphashrink 0.99           vdfmax 100000 halfstepback no initialdelay no
  unfix freeze

  # Minimize top ho
  fix freeze immo_top_ho setforce 0.0 0.0 0.0
  minimize 1.0e-6 1.0e-9 1000 10000
PPPM initialization ...
  using 12-bit tables for long-range coulomb (../kspace.cpp:340)
  G vector (1/distance) = 0.28992484
  grid = 40 40 160
  stencil order = 5
  estimated absolute RMS force accuracy = 0.0003575219
  estimated relative force accuracy = 1.0766666e-06
  using double precision KISS FFT
  3d grid and FFT values/proc = 100920 46800
Per MPI rank memory allocation (min/avg/max) = 12.80 | 14.60 | 19.22 Mbytes
Step Temp PotEng 
  104994            0   -198419.55 
  105000            0   -202056.09 
  105031            0   -203349.37 
Loop time of 0.378077 on 20 procs for 37 steps with 1332 atoms

99.0% CPU use with 20 MPI tasks x no OpenMP threads

Minimization stats:
  Stopping criterion = energy tolerance
  Energy initial, next-to-last, final = 
     -198419.548296163  -203349.204642127  -203349.373223516
  Force two-norm initial, final = 3328.2613 16.172807
  Force max component initial, final = 357.35643 4.8887999
  Final line search alpha, max atom move = 0.013301776 0.065029723
  Iterations, force evaluations = 37 58

MPI task timing breakdown:
Section |  min time  |  avg time  |  max time  |%varavg| %total
---------------------------------------------------------------
Pair    | 2.074e-05  | 0.031681   | 0.11667    |  23.5 |  8.38
Bond    | 4.4008e-05 | 0.00017519 | 0.0003961  |   0.0 |  0.05
Kspace  | 0.24564    | 0.33063    | 0.36303    |   7.3 | 87.45
Neigh   | 0.0030531  | 0.0030688  | 0.0030901  |   0.0 |  0.81
Comm    | 0.0052418  | 0.008088   | 0.010827   |   2.3 |  2.14
Output  | 1.8064e-05 | 1.998e-05  | 4.3356e-05 |   0.0 |  0.01
Modify  | 2.1658e-05 | 4.6392e-05 | 7.3734e-05 |   0.0 |  0.01
Other   |            | 0.004368   |            |       |  1.16

Nlocal:        66.6000 ave         216 max           0 min
Histogram: 8 0 8 0 0 0 0 0 0 4
Nghost:        2086.25 ave        3163 max         858 min
Histogram: 8 0 0 0 0 0 0 0 8 4
Neighs:        27340.5 ave      102297 max           0 min
Histogram: 9 3 4 0 0 0 0 0 0 4
FullNghs:      54675.9 ave      197755 max           0 min
Histogram: 8 8 0 0 0 0 0 0 0 4

Total # of neighbors = 1093518
Ave neighs/atom = 820.95946
Ave special neighs/atom = 0.43243243
Neighbor list builds = 2
Dangerous builds = 0
  min_modify integrator eulerexplicit tmax 10.0 tmin 0.0 delaystep 5           dtgrow 1.1 dtshrink 0.5 alpha0 0.1 alphashrink 0.99           vdfmax 100000 halfstepback no initialdelay no
  unfix freeze

  # Minimize bottom formate
  fix freeze immo_bottom_fa setforce 0.0 0.0 0.0
  minimize 1.0e-6 1.0e-9 1000 10000
PPPM initialization ...
  using 12-bit tables for long-range coulomb (../kspace.cpp:340)
  G vector (1/distance) = 0.28992484
  grid = 40 40 160
  stencil order = 5
  estimated absolute RMS force accuracy = 0.0003575219
  estimated relative force accuracy = 1.0766666e-06
  using double precision KISS FFT
  3d grid and FFT values/proc = 100920 46800
Per MPI rank memory allocation (min/avg/max) = 12.80 | 14.60 | 19.22 Mbytes
Step Temp PotEng 
  105031            0   -203349.37 
  105048            0   -208140.87 
Loop time of 0.202787 on 20 procs for 17 steps with 1332 atoms

99.7% CPU use with 20 MPI tasks x no OpenMP threads

Minimization stats:
  Stopping criterion = energy tolerance
  Energy initial, next-to-last, final = 
     -203349.373223516  -208140.771355035  -208140.870943011
  Force two-norm initial, final = 3991.4978 13.733921
  Force max component initial, final = 417.65989 4.5505848
  Final line search alpha, max atom move = 0.021631119 0.098434240
  Iterations, force evaluations = 17 31

MPI task timing breakdown:
Section |  min time  |  avg time  |  max time  |%varavg| %total
---------------------------------------------------------------
Pair    | 1.452e-05  | 0.017212   | 0.063263   |  17.3 |  8.49
Bond    | 2.469e-05  | 9.3945e-05 | 0.00021427 |   0.0 |  0.05
Kspace  | 0.13279    | 0.17882    | 0.19641    |   5.4 | 88.18
Neigh   | 0          | 0          | 0          |   0.0 |  0.00
Comm    | 0.002636   | 0.0041731  | 0.0056539  |   1.8 |  2.06
Output  | 0          | 0          | 0          |   0.0 |  0.00
Modify  | 8.974e-06  | 2.5362e-05 | 4.03e-05   |   0.0 |  0.01
Other   |            | 0.002464   |            |       |  1.22

Nlocal:        66.6000 ave         216 max           0 min
Histogram: 8 0 8 0 0 0 0 0 0 4
Nghost:        2086.25 ave        3163 max         858 min
Histogram: 8 0 0 0 0 0 0 0 8 4
Neighs:        27351.7 ave      102311 max           0 min
Histogram: 8 4 4 0 0 0 0 0 0 4
FullNghs:      54675.9 ave      197755 max           0 min
Histogram: 8 8 0 0 0 0 0 0 0 4

Total # of neighbors = 1093518
Ave neighs/atom = 820.95946
Ave special neighs/atom = 0.43243243
Neighbor list builds = 0
Dangerous builds = 0
  min_modify integrator eulerexplicit tmax 10.0 tmin 0.0 delaystep 5           dtgrow 1.1 dtshrink 0.5 alpha0 0.1 alphashrink 0.99           vdfmax 100000 halfstepback no initialdelay no
  unfix freeze

  # Minimize bottom ho
  fix freeze immo_bottom_ho setforce 0.0 0.0 0.0
  minimize 1.0e-6 1.0e-9 1000 10000
PPPM initialization ...
  using 12-bit tables for long-range coulomb (../kspace.cpp:340)
  G vector (1/distance) = 0.28992484
  grid = 40 40 160
  stencil order = 5
  estimated absolute RMS force accuracy = 0.0003575219
  estimated relative force accuracy = 1.0766666e-06
  using double precision KISS FFT
  3d grid and FFT values/proc = 100920 46800
Per MPI rank memory allocation (min/avg/max) = 12.80 | 14.60 | 19.22 Mbytes
Step Temp PotEng 
  105048            0   -208140.87 
  105075            0   -210488.65 
Loop time of 0.274337 on 20 procs for 27 steps with 1332 atoms

99.5% CPU use with 20 MPI tasks x no OpenMP threads

Minimization stats:
  Stopping criterion = energy tolerance
  Energy initial, next-to-last, final = 
     -208140.870943011  -210488.502844125  -210488.649057809
  Force two-norm initial, final = 1247.2020 13.853691
  Force max component initial, final = 208.35492 3.3972550
  Final line search alpha, max atom move = 0.0073309096 0.024904970
  Iterations, force evaluations = 27 42

MPI task timing breakdown:
Section |  min time  |  avg time  |  max time  |%varavg| %total
---------------------------------------------------------------
Pair    | 1.6241e-05 | 0.023163   | 0.084913   |  20.0 |  8.44
Bond    | 3.3631e-05 | 0.00012289 | 0.0002743  |   0.0 |  0.04
Kspace  | 0.17873    | 0.24047    | 0.26414    |   6.2 | 87.66
Neigh   | 0.0014939  | 0.0015037  | 0.0015172  |   0.0 |  0.55
Comm    | 0.0037553  | 0.0058068  | 0.0077655  |   2.0 |  2.12
Output  | 0          | 0          | 0          |   0.0 |  0.00
Modify  | 1.4693e-05 | 3.4643e-05 | 5.5389e-05 |   0.0 |  0.01
Other   |            | 0.003235   |            |       |  1.18

Nlocal:        66.6000 ave         216 max           0 min
Histogram: 8 0 8 0 0 0 0 0 0 4
Nghost:        2083.25 ave        3158 max         858 min
Histogram: 8 0 0 0 0 0 0 0 8 4
Neighs:        27358.3 ave      102134 max           0 min
Histogram: 8 4 4 0 0 0 0 0 0 4
FullNghs:      54675.9 ave      197755 max           0 min
Histogram: 8 8 0 0 0 0 0 0 0 4

Total # of neighbors = 1093518
Ave neighs/atom = 820.95946
Ave special neighs/atom = 0.43243243
Neighbor list builds = 1
Dangerous builds = 0
  min_modify integrator eulerexplicit tmax 10.0 tmin 0.0 delaystep 5           dtgrow 1.1 dtshrink 0.5 alpha0 0.1 alphashrink 0.99           vdfmax 100000 halfstepback no initialdelay no
  unfix freeze

  # Electrostatic relaxation
  fix  swp feo atom/swap 1 1 ${rand} ${temp} ke no types 6 7
  fix  swp feo atom/swap 1 1 710414 ${temp} ke no types 6 7
  fix  swp feo atom/swap 1 1 710414 500000 ke no types 6 7
  thermo 1000
  thermo_style custom step v_ftemp v_cnum pe f_swp[1] f_swp[2] v_rfet3 v_rfeo3
  run ${nsteps}
  run 26244
PPPM initialization ...
  using 12-bit tables for long-range coulomb (../kspace.cpp:340)
  G vector (1/distance) = 0.28992484
  grid = 40 40 160
  stencil order = 5
  estimated absolute RMS force accuracy = 0.0003575219
  estimated relative force accuracy = 1.0766666e-06
  using double precision KISS FFT
  3d grid and FFT values/proc = 100920 46800
Per MPI rank memory allocation (min/avg/max) = 11.68 | 13.48 | 18.09 Mbytes
Step v_ftemp v_cnum PotEng f_swp[1] f_swp[2] v_rfet3 v_rfeo3 
  105075       500000          109   -210488.65            0            0            1   0.66666667 
  106000       500000          109   -208522.97          925          716            1   0.66666667 
  107000       500000          109   -208662.97         1925         1490            1   0.66666667 
  108000       500000          109   -208399.21         2925         2260            1   0.66666667 
  109000       500000          109   -208612.92         3925         3022            1   0.66666667 
  110000       500000          109   -208733.44         4925         3789            1   0.66666667 
  111000       500000          109    -208735.2         5925         4552            1   0.66666667 
  112000       500000          109   -209174.99         6925         5315            1   0.66666667 
  113000       500000          109    -209071.9         7925         6086            1   0.66666667 
  114000       500000          109   -208767.91         8925         6845            1   0.66666667 
  115000       500000          109   -208836.78         9925         7602            1   0.66666667 
  116000       500000          109    -208948.6        10925         8380            1   0.66666667 
  117000       500000          109   -208367.42        11925         9150            1   0.66666667 
  118000       500000          109   -208663.07        12925         9946            1   0.66666667 
  119000       500000          109   -208512.62        13925        10732            1   0.66666667 
  120000       500000          109   -209264.53        14925        11507            1   0.66666667 
  121000       500000          109   -208473.76        15925        12272            1   0.66666667 
  122000       500000          109   -208913.21        16925        13062            1   0.66666667 
  123000       500000          109   -208244.84        17925        13855            1   0.66666667 
  124000       500000          109    -207989.7        18925        14632            1   0.66666667 
  125000       500000          109   -209303.47        19925        15402            1   0.66666667 
  126000       500000          109   -208794.71        20925        16167            1   0.66666667 
  127000       500000          109   -208054.52        21925        16951            1   0.66666667 
  128000       500000          109   -208636.09        22925        17729            1   0.66666667 
  129000       500000          109   -208310.48        23925        18485            1   0.66666667 
  130000       500000          109   -208489.51        24925        19241            1   0.66666667 
  131000       500000          109    -208471.1        25925        19996            1   0.66666667 
  131319       500000          109   -209541.38        26244        20251            1   0.66666667 
Loop time of 732.138 on 20 procs for 26244 steps with 1332 atoms

Performance: 1.549 ns/day, 15.499 hours/ns, 35.846 timesteps/s
99.4% CPU use with 20 MPI tasks x no OpenMP threads

MPI task timing breakdown:
Section |  min time  |  avg time  |  max time  |%varavg| %total
---------------------------------------------------------------
Pair    | 0.008283   | 9.6713     | 35.455     | 409.3 |  1.32
Bond    | 0.010187   | 0.056302   | 0.14275    |  22.5 |  0.01
Kspace  | 109.34     | 135.16     | 144.95     | 109.7 | 18.46
Neigh   | 39.881     | 40.047     | 40.302     |   2.0 |  5.47
Comm    | 7.3533     | 8.6325     | 9.8442     |  31.7 |  1.18
Output  | 0.0026135  | 0.0039004  | 0.0055291  |   1.6 |  0.00
Modify  | 537.16     | 538.38     | 539.42     |   3.9 | 73.54
Other   |            | 0.1927     |            |       |  0.03

Nlocal:        66.6000 ave         216 max           0 min
Histogram: 8 0 8 0 0 0 0 0 0 4
Nghost:        2083.25 ave        3158 max         858 min
Histogram: 8 0 0 0 0 0 0 0 8 4
Neighs:        27371.8 ave      102197 max           0 min
Histogram: 8 4 4 0 0 0 0 0 0 4
FullNghs:      54675.9 ave      197755 max           0 min
Histogram: 8 8 0 0 0 0 0 0 0 4

Total # of neighbors = 1093518
Ave neighs/atom = 820.95946
Ave special neighs/atom = 0.43243243
Neighbor list builds = 52488
Dangerous builds = 0

  variable cnum equal (${cnum}-1)
  variable cnum equal (109-1)

  unfix swp
  thermo_style custom step temp pe
  write_data  001-dbt_3x3_${layer}L_fa_${type}_${cnum}_${temp}K.data
  write_data  001-dbt_3x3_17L_fa_${type}_${cnum}_${temp}K.data
  write_data  001-dbt_3x3_17L_fa_int_full_${cnum}_${temp}K.data
  write_data  001-dbt_3x3_17L_fa_int_full_108_${temp}K.data
  write_data  001-dbt_3x3_17L_fa_int_full_108_500000K.data
System init for write_data ...
PPPM initialization ...
  using 12-bit tables for long-range coulomb (../kspace.cpp:340)
  G vector (1/distance) = 0.28992484
  grid = 40 40 160
  stencil order = 5
  estimated absolute RMS force accuracy = 0.0003575219
  estimated relative force accuracy = 1.0766666e-06
  using double precision KISS FFT
  3d grid and FFT values/proc = 100920 46800

next temp
jump SELF minimize_temp

  variable ftemp equal v_temp

  # Minimize top formate
  fix freeze immo_top_fa setforce 0.0 0.0 0.0
  minimize 1.0e-6 1.0e-9 1000 10000
PPPM initialization ...
  using 12-bit tables for long-range coulomb (../kspace.cpp:340)
  G vector (1/distance) = 0.28992484
  grid = 40 40 160
  stencil order = 5
  estimated absolute RMS force accuracy = 0.0003575219
  estimated relative force accuracy = 1.0766666e-06
  using double precision KISS FFT
  3d grid and FFT values/proc = 100920 46800
Per MPI rank memory allocation (min/avg/max) = 12.80 | 14.60 | 19.22 Mbytes
Step Temp PotEng 
  131319            0   -209541.38 
  131326            0   -209555.77 
Loop time of 0.0950322 on 20 procs for 7 steps with 1332 atoms

99.1% CPU use with 20 MPI tasks x no OpenMP threads

Minimization stats:
  Stopping criterion = energy tolerance
  Energy initial, next-to-last, final = 
      -209541.38161135   -209555.56864751  -209555.773022754
  Force two-norm initial, final = 136.75374 26.874110
  Force max component initial, final = 49.357336 9.7075739
  Final line search alpha, max atom move = 0.012692097 0.12320947
  Iterations, force evaluations = 7 14

MPI task timing breakdown:
Section |  min time  |  avg time  |  max time  |%varavg| %total
---------------------------------------------------------------
Pair    | 9.035e-06  | 0.0080779  | 0.029559   |  11.8 |  8.50
Bond    | 1.2073e-05 | 4.2618e-05 | 9.8531e-05 |   0.0 |  0.04
Kspace  | 0.062118   | 0.083608   | 0.091877   |   3.7 | 87.98
Neigh   | 0          | 0          | 0          |   0.0 |  0.00
Comm    | 0.001214   | 0.0019583  | 0.002665   |   1.2 |  2.06
Output  | 0          | 0          | 0          |   0.0 |  0.00
Modify  | 6.126e-06  | 1.1867e-05 | 1.8933e-05 |   0.0 |  0.01
Other   |            | 0.001334   |            |       |  1.40

Nlocal:        66.6000 ave         216 max           0 min
Histogram: 8 0 8 0 0 0 0 0 0 4
Nghost:        2083.25 ave        3158 max         858 min
Histogram: 8 0 0 0 0 0 0 0 8 4
Neighs:        27371.8 ave      102197 max           0 min
Histogram: 8 4 4 0 0 0 0 0 0 4
FullNghs:      54675.9 ave      197755 max           0 min
Histogram: 8 8 0 0 0 0 0 0 0 4

Total # of neighbors = 1093518
Ave neighs/atom = 820.95946
Ave special neighs/atom = 0.43243243
Neighbor list builds = 0
Dangerous builds = 0
  min_modify integrator eulerexplicit tmax 10.0 tmin 0.0 delaystep 5           dtgrow 1.1 dtshrink 0.5 alpha0 0.1 alphashrink 0.99           vdfmax 100000 halfstepback no initialdelay no
  unfix freeze

  # Minimize top ho
  fix freeze immo_top_ho setforce 0.0 0.0 0.0
  minimize 1.0e-6 1.0e-9 1000 10000
PPPM initialization ...
  using 12-bit tables for long-range coulomb (../kspace.cpp:340)
  G vector (1/distance) = 0.28992484
  grid = 40 40 160
  stencil order = 5
  estimated absolute RMS force accuracy = 0.0003575219
  estimated relative force accuracy = 1.0766666e-06
  using double precision KISS FFT
  3d grid and FFT values/proc = 100920 46800
Per MPI rank memory allocation (min/avg/max) = 12.80 | 14.60 | 19.22 Mbytes
Step Temp PotEng 
  131326            0   -209555.77 
  131334            0   -209587.91 
Loop time of 0.108117 on 20 procs for 8 steps with 1332 atoms

98.9% CPU use with 20 MPI tasks x no OpenMP threads

Minimization stats:
  Stopping criterion = energy tolerance
  Energy initial, next-to-last, final = 
     -209555.773022754  -209587.736454479  -209587.905137302
  Force two-norm initial, final = 214.85140 17.136665
  Force max component initial, final = 63.928250 5.5235630
  Final line search alpha, max atom move = 0.027295834 0.15077026
  Iterations, force evaluations = 8 16

MPI task timing breakdown:
Section |  min time  |  avg time  |  max time  |%varavg| %total
---------------------------------------------------------------
Pair    | 1.0012e-05 | 0.009164   | 0.033524   |  12.6 |  8.48
Bond    | 1.3029e-05 | 4.9052e-05 | 0.00011763 |   0.0 |  0.05
Kspace  | 0.070912   | 0.095254   | 0.10463    |   3.9 | 88.10
Neigh   | 0          | 0          | 0          |   0.0 |  0.00
Comm    | 0.0013817  | 0.002207   | 0.0029941  |   1.3 |  2.04
Output  | 0          | 0          | 0          |   0.0 |  0.00
Modify  | 6.726e-06  | 1.3478e-05 | 2.2017e-05 |   0.0 |  0.01
Other   |            | 0.001429   |            |       |  1.32

Nlocal:        66.6000 ave         216 max           0 min
Histogram: 8 0 8 0 0 0 0 0 0 4
Nghost:        2082.80 ave        3158 max         856 min
Histogram: 8 0 0 0 0 0 0 0 8 4
Neighs:        27369.8 ave      102191 max           0 min
Histogram: 8 4 4 0 0 0 0 0 0 4
FullNghs:      54675.9 ave      197755 max           0 min
Histogram: 8 8 0 0 0 0 0 0 0 4

Total # of neighbors = 1093518
Ave neighs/atom = 820.95946
Ave special neighs/atom = 0.43243243
Neighbor list builds = 0
Dangerous builds = 0
  min_modify integrator eulerexplicit tmax 10.0 tmin 0.0 delaystep 5           dtgrow 1.1 dtshrink 0.5 alpha0 0.1 alphashrink 0.99           vdfmax 100000 halfstepback no initialdelay no
  unfix freeze

  # Minimize bottom formate
  fix freeze immo_bottom_fa setforce 0.0 0.0 0.0
  minimize 1.0e-6 1.0e-9 1000 10000
PPPM initialization ...
  using 12-bit tables for long-range coulomb (../kspace.cpp:340)
  G vector (1/distance) = 0.28992484
  grid = 40 40 160
  stencil order = 5
  estimated absolute RMS force accuracy = 0.0003575219
  estimated relative force accuracy = 1.0766666e-06
  using double precision KISS FFT
  3d grid and FFT values/proc = 100920 46800
Per MPI rank memory allocation (min/avg/max) = 12.80 | 14.60 | 19.22 Mbytes
Step Temp PotEng 
  131334            0   -209587.91 
  131346            0   -209613.42 
Loop time of 0.158675 on 20 procs for 12 steps with 1332 atoms

99.1% CPU use with 20 MPI tasks x no OpenMP threads

Minimization stats:
  Stopping criterion = energy tolerance
  Energy initial, next-to-last, final = 
     -209587.905137302  -209613.290538284  -209613.418896568
  Force two-norm initial, final = 148.29693 16.350160
  Force max component initial, final = 55.342865 3.9790335
  Final line search alpha, max atom move = 0.0095913438 0.038164279
  Iterations, force evaluations = 12 24

MPI task timing breakdown:
Section |  min time  |  avg time  |  max time  |%varavg| %total
---------------------------------------------------------------
Pair    | 1.3671e-05 | 0.013486   | 0.049287   |  15.2 |  8.50
Bond    | 1.9207e-05 | 7.1209e-05 | 0.00016207 |   0.0 |  0.04
Kspace  | 0.10406    | 0.13985    | 0.15365    |   4.7 | 88.14
Neigh   | 0          | 0          | 0          |   0.0 |  0.00
Comm    | 0.0020445  | 0.0032658  | 0.0044505  |   1.6 |  2.06
Output  | 0          | 0          | 0          |   0.0 |  0.00
Modify  | 8.082e-06  | 1.9105e-05 | 2.9933e-05 |   0.0 |  0.01
Other   |            | 0.001978   |            |       |  1.25

Nlocal:        66.6000 ave         216 max           0 min
Histogram: 8 0 8 0 0 0 0 0 0 4
Nghost:        2082.80 ave        3158 max         856 min
Histogram: 8 0 0 0 0 0 0 0 8 4
Neighs:        27367.5 ave      102181 max           0 min
Histogram: 8 4 4 0 0 0 0 0 0 4
FullNghs:      54675.9 ave      197755 max           0 min
Histogram: 8 8 0 0 0 0 0 0 0 4

Total # of neighbors = 1093518
Ave neighs/atom = 820.95946
Ave special neighs/atom = 0.43243243
Neighbor list builds = 0
Dangerous builds = 0
  min_modify integrator eulerexplicit tmax 10.0 tmin 0.0 delaystep 5           dtgrow 1.1 dtshrink 0.5 alpha0 0.1 alphashrink 0.99           vdfmax 100000 halfstepback no initialdelay no
  unfix freeze

  # Minimize bottom ho
  fix freeze immo_bottom_ho setforce 0.0 0.0 0.0
  minimize 1.0e-6 1.0e-9 1000 10000
PPPM initialization ...
  using 12-bit tables for long-range coulomb (../kspace.cpp:340)
  G vector (1/distance) = 0.28992484
  grid = 40 40 160
  stencil order = 5
  estimated absolute RMS force accuracy = 0.0003575219
  estimated relative force accuracy = 1.0766666e-06
  using double precision KISS FFT
  3d grid and FFT values/proc = 100920 46800
Per MPI rank memory allocation (min/avg/max) = 12.80 | 14.60 | 19.22 Mbytes
Step Temp PotEng 
  131346            0   -209613.42 
  131354            0   -209659.21 
Loop time of 0.108099 on 20 procs for 8 steps with 1332 atoms

99.1% CPU use with 20 MPI tasks x no OpenMP threads

Minimization stats:
  Stopping criterion = energy tolerance
  Energy initial, next-to-last, final = 
     -209613.418896568  -209659.108879987  -209659.211361451
  Force two-norm initial, final = 246.43510 14.608390
  Force max component initial, final = 60.050948 3.6489745
  Final line search alpha, max atom move = 0.024378147 0.088955235
  Iterations, force evaluations = 8 16

MPI task timing breakdown:
Section |  min time  |  avg time  |  max time  |%varavg| %total
---------------------------------------------------------------
Pair    | 1.0489e-05 | 0.0091835  | 0.033671   |  12.6 |  8.50
Bond    | 1.2301e-05 | 4.922e-05  | 0.0001102  |   0.0 |  0.05
Kspace  | 0.07068    | 0.095177   | 0.10458    |   3.9 | 88.05
Neigh   | 0          | 0          | 0          |   0.0 |  0.00
Comm    | 0.0014027  | 0.0022383  | 0.0030381  |   1.3 |  2.07
Output  | 0          | 0          | 0          |   0.0 |  0.00
Modify  | 6.237e-06  | 1.2796e-05 | 2.0556e-05 |   0.0 |  0.01
Other   |            | 0.001439   |            |       |  1.33

Nlocal:        66.6000 ave         216 max           0 min
Histogram: 8 0 8 0 0 0 0 0 0 4
Nghost:        2082.80 ave        3158 max         856 min
Histogram: 8 0 0 0 0 0 0 0 8 4
Neighs:        27365.0 ave      102276 max           0 min
Histogram: 8 4 4 0 0 0 0 0 0 4
FullNghs:      54675.9 ave      197755 max           0 min
Histogram: 8 8 0 0 0 0 0 0 0 4

Total # of neighbors = 1093518
Ave neighs/atom = 820.95946
Ave special neighs/atom = 0.43243243
Neighbor list builds = 0
Dangerous builds = 0
  min_modify integrator eulerexplicit tmax 10.0 tmin 0.0 delaystep 5           dtgrow 1.1 dtshrink 0.5 alpha0 0.1 alphashrink 0.99           vdfmax 100000 halfstepback no initialdelay no
  unfix freeze

  # Electrostatic relaxation
  fix  swp feo atom/swap 1 1 ${rand} ${temp} ke no types 6 7
  fix  swp feo atom/swap 1 1 755762 ${temp} ke no types 6 7
  fix  swp feo atom/swap 1 1 755762 450000 ke no types 6 7
  thermo 1000
  thermo_style custom step v_ftemp v_cnum pe f_swp[1] f_swp[2] v_rfet3 v_rfeo3
  run ${nsteps}
  run 26244
PPPM initialization ...
  using 12-bit tables for long-range coulomb (../kspace.cpp:340)
  G vector (1/distance) = 0.28992484
  grid = 40 40 160
  stencil order = 5
  estimated absolute RMS force accuracy = 0.0003575219
  estimated relative force accuracy = 1.0766666e-06
  using double precision KISS FFT
  3d grid and FFT values/proc = 100920 46800
Per MPI rank memory allocation (min/avg/max) = 11.68 | 13.48 | 18.09 Mbytes
Step v_ftemp v_cnum PotEng f_swp[1] f_swp[2] v_rfet3 v_rfeo3 
  131354       450000          108   -209659.21            0            0            1   0.66666667 
  132000       450000          108   -209325.44          646          491            1   0.66666667 
  133000       450000          108   -208714.65         1646         1268            1   0.66666667 
  134000       450000          108   -208947.15         2646         2049            1   0.66666667 
  135000       450000          108   -209202.85         3646         2826            1   0.66666667 
  136000       450000          108   -208730.12         4646         3583            1   0.66666667 
  137000       450000          108   -208604.26         5646         4355            1   0.66666667 
  138000       450000          108    -208787.3         6646         5126            1   0.66666667 
  139000       450000          108   -209091.46         7646         5896            1   0.66666667 
  140000       450000          108   -209117.22         8646         6664            1   0.66666667 
  141000       450000          108   -208850.38         9646         7432            1   0.66666667 
  142000       450000          108   -208783.01        10646         8204            1   0.66666667 
  143000       450000          108   -208506.58        11646         8977            1   0.66666667 
  144000       450000          108   -209039.95        12646         9743            1   0.66666667 
  145000       450000          108   -208769.19        13646        10528            1   0.66666667 
  146000       450000          108   -208630.57        14646        11286            1   0.66666667 
  147000       450000          108   -208619.71        15646        12062            1   0.66666667 
  148000       450000          108   -208922.61        16646        12815            1   0.66666667 
  149000       450000          108    -208709.2        17646        13585            1   0.66666667 
  150000       450000          108   -209320.75        18646        14367            1   0.66666667 
  151000       450000          108   -208633.58        19646        15105            1   0.66666667 
  152000       450000          108   -209216.27        20646        15883            1   0.66666667 
  153000       450000          108      -209063        21646        16654            1   0.66666667 
  154000       450000          108   -209223.07        22646        17402            1   0.66666667 
  155000       450000          108   -209233.78        23646        18174            1   0.66666667 
  156000       450000          108   -208807.33        24646        18961            1   0.66666667 
  157000       450000          108   -208669.38        25646        19746            1   0.66666667 
  157598       450000          108   -208266.16        26244        20189            1   0.66666667 
Loop time of 734.774 on 20 procs for 26244 steps with 1332 atoms

Performance: 1.543 ns/day, 15.554 hours/ns, 35.717 timesteps/s
99.4% CPU use with 20 MPI tasks x no OpenMP threads

MPI task timing breakdown:
Section |  min time  |  avg time  |  max time  |%varavg| %total
---------------------------------------------------------------
Pair    | 0.0099494  | 9.6836     | 35.646     | 410.1 |  1.32
Bond    | 0.0093723  | 0.057426   | 0.14106    |  23.1 |  0.01
Kspace  | 109.85     | 135.83     | 145.65     | 109.8 | 18.49
Neigh   | 39.985     | 40.152     | 40.384     |   2.0 |  5.46
Comm    | 7.375      | 8.6286     | 9.8373     |  31.5 |  1.17
Output  | 0.0022352  | 0.0035261  | 0.0051429  |   1.6 |  0.00
Modify  | 539.01     | 540.22     | 541.26     |   3.8 | 73.52
Other   |            | 0.1919     |            |       |  0.03

Nlocal:        66.6000 ave         216 max           0 min
Histogram: 8 0 8 0 0 0 0 0 0 4
Nghost:        2082.80 ave        3158 max         856 min
Histogram: 8 0 0 0 0 0 0 0 8 4
Neighs:        27363.5 ave      102282 max           0 min
Histogram: 8 4 4 0 0 0 0 0 0 4
FullNghs:      54675.9 ave      197755 max           0 min
Histogram: 8 8 0 0 0 0 0 0 0 4

Total # of neighbors = 1093518
Ave neighs/atom = 820.95946
Ave special neighs/atom = 0.43243243
Neighbor list builds = 52488
Dangerous builds = 0

  variable cnum equal (${cnum}-1)
  variable cnum equal (108-1)

  unfix swp
  thermo_style custom step temp pe
  write_data  001-dbt_3x3_${layer}L_fa_${type}_${cnum}_${temp}K.data
  write_data  001-dbt_3x3_17L_fa_${type}_${cnum}_${temp}K.data
  write_data  001-dbt_3x3_17L_fa_int_full_${cnum}_${temp}K.data
  write_data  001-dbt_3x3_17L_fa_int_full_107_${temp}K.data
  write_data  001-dbt_3x3_17L_fa_int_full_107_450000K.data
System init for write_data ...
PPPM initialization ...
  using 12-bit tables for long-range coulomb (../kspace.cpp:340)
  G vector (1/distance) = 0.28992484
  grid = 40 40 160
  stencil order = 5
  estimated absolute RMS force accuracy = 0.0003575219
  estimated relative force accuracy = 1.0766666e-06
  using double precision KISS FFT
  3d grid and FFT values/proc = 100920 46800

next temp
jump SELF minimize_temp

  variable ftemp equal v_temp

  # Minimize top formate
  fix freeze immo_top_fa setforce 0.0 0.0 0.0
  minimize 1.0e-6 1.0e-9 1000 10000
PPPM initialization ...
  using 12-bit tables for long-range coulomb (../kspace.cpp:340)
  G vector (1/distance) = 0.28992484
  grid = 40 40 160
  stencil order = 5
  estimated absolute RMS force accuracy = 0.0003575219
  estimated relative force accuracy = 1.0766666e-06
  using double precision KISS FFT
  3d grid and FFT values/proc = 100920 46800
Per MPI rank memory allocation (min/avg/max) = 12.80 | 14.60 | 19.22 Mbytes
Step Temp PotEng 
  157598            0   -208266.16 
  157610            0   -208286.39 
Loop time of 0.158253 on 20 procs for 12 steps with 1332 atoms

99.2% CPU use with 20 MPI tasks x no OpenMP threads

Minimization stats:
  Stopping criterion = energy tolerance
  Energy initial, next-to-last, final = 
     -208266.156993789  -208286.246658961  -208286.394402811
  Force two-norm initial, final = 115.53965 15.414850
  Force max component initial, final = 45.355297 4.6060097
  Final line search alpha, max atom move = 0.0096061094 0.044245833
  Iterations, force evaluations = 12 24

MPI task timing breakdown:
Section |  min time  |  avg time  |  max time  |%varavg| %total
---------------------------------------------------------------
Pair    | 1.2296e-05 | 0.013494   | 0.049579   |  15.3 |  8.53
Bond    | 1.9307e-05 | 7.2254e-05 | 0.00016736 |   0.0 |  0.05
Kspace  | 0.10327    | 0.13935    | 0.15317    |   4.8 | 88.05
Neigh   | 0          | 0          | 0          |   0.0 |  0.00
Comm    | 0.0020734  | 0.0033022  | 0.0044803  |   1.5 |  2.09
Output  | 0          | 0          | 0          |   0.0 |  0.00
Modify  | 8.699e-06  | 1.9541e-05 | 3.1701e-05 |   0.0 |  0.01
Other   |            | 0.002016   |            |       |  1.27

Nlocal:        66.6000 ave         216 max           0 min
Histogram: 8 0 8 0 0 0 0 0 0 4
Nghost:        2082.80 ave        3158 max         856 min
Histogram: 8 0 0 0 0 0 0 0 8 4
Neighs:        27363.5 ave      102282 max           0 min
Histogram: 8 4 4 0 0 0 0 0 0 4
FullNghs:      54675.9 ave      197755 max           0 min
Histogram: 8 8 0 0 0 0 0 0 0 4

Total # of neighbors = 1093518
Ave neighs/atom = 820.95946
Ave special neighs/atom = 0.43243243
Neighbor list builds = 0
Dangerous builds = 0
  min_modify integrator eulerexplicit tmax 10.0 tmin 0.0 delaystep 5           dtgrow 1.1 dtshrink 0.5 alpha0 0.1 alphashrink 0.99           vdfmax 100000 halfstepback no initialdelay no
  unfix freeze

  # Minimize top ho
  fix freeze immo_top_ho setforce 0.0 0.0 0.0
  minimize 1.0e-6 1.0e-9 1000 10000
PPPM initialization ...
  using 12-bit tables for long-range coulomb (../kspace.cpp:340)
  G vector (1/distance) = 0.28992484
  grid = 40 40 160
  stencil order = 5
  estimated absolute RMS force accuracy = 0.0003575219
  estimated relative force accuracy = 1.0766666e-06
  using double precision KISS FFT
  3d grid and FFT values/proc = 100920 46800
Per MPI rank memory allocation (min/avg/max) = 12.80 | 14.60 | 19.22 Mbytes
Step Temp PotEng 
  157610            0   -208286.39 
  157618            0   -208344.48 
Loop time of 0.108364 on 20 procs for 8 steps with 1332 atoms

99.8% CPU use with 20 MPI tasks x no OpenMP threads

Minimization stats:
  Stopping criterion = energy tolerance
  Energy initial, next-to-last, final = 
     -208286.394402811  -208344.374073008  -208344.478584334
  Force two-norm initial, final = 270.54076 14.262241
  Force max component initial, final = 66.259510 3.3730755
  Final line search alpha, max atom move = 0.020956424 0.070687602
  Iterations, force evaluations = 8 16

MPI task timing breakdown:
Section |  min time  |  avg time  |  max time  |%varavg| %total
---------------------------------------------------------------
Pair    | 9.78e-06   | 0.0091812  | 0.033724   |  12.6 |  8.47
Bond    | 1.2022e-05 | 4.8721e-05 | 0.00010972 |   0.0 |  0.04
Kspace  | 0.070916   | 0.095464   | 0.10487    |   3.9 | 88.10
Neigh   | 0          | 0          | 0          |   0.0 |  0.00
Comm    | 0.0013775  | 0.00221    | 0.0030038  |   1.3 |  2.04
Output  | 0          | 0          | 0          |   0.0 |  0.00
Modify  | 6.116e-06  | 1.309e-05  | 2.0827e-05 |   0.0 |  0.01
Other   |            | 0.001447   |            |       |  1.34

Nlocal:        66.6000 ave         216 max           0 min
Histogram: 8 0 8 0 0 0 0 0 0 4
Nghost:        2082.80 ave        3157 max         857 min
Histogram: 8 0 0 0 0 0 0 0 8 4
Neighs:        27362.2 ave      102300 max           0 min
Histogram: 8 4 4 0 0 0 0 0 0 4
FullNghs:      54675.9 ave      197755 max           0 min
Histogram: 8 8 0 0 0 0 0 0 0 4

Total # of neighbors = 1093518
Ave neighs/atom = 820.95946
Ave special neighs/atom = 0.43243243
Neighbor list builds = 0
Dangerous builds = 0
  min_modify integrator eulerexplicit tmax 10.0 tmin 0.0 delaystep 5           dtgrow 1.1 dtshrink 0.5 alpha0 0.1 alphashrink 0.99           vdfmax 100000 halfstepback no initialdelay no
  unfix freeze

  # Minimize bottom formate
  fix freeze immo_bottom_fa setforce 0.0 0.0 0.0
  minimize 1.0e-6 1.0e-9 1000 10000
PPPM initialization ...
  using 12-bit tables for long-range coulomb (../kspace.cpp:340)
  G vector (1/distance) = 0.28992484
  grid = 40 40 160
  stencil order = 5
  estimated absolute RMS force accuracy = 0.0003575219
  estimated relative force accuracy = 1.0766666e-06
  using double precision KISS FFT
  3d grid and FFT values/proc = 100920 46800
Per MPI rank memory allocation (min/avg/max) = 12.80 | 14.60 | 19.22 Mbytes
Step Temp PotEng 
  157618            0   -208344.48 
  157634            0   -208374.15 
Loop time of 0.203413 on 20 procs for 16 steps with 1332 atoms

99.6% CPU use with 20 MPI tasks x no OpenMP threads

Minimization stats:
  Stopping criterion = energy tolerance
  Energy initial, next-to-last, final = 
     -208344.478584334  -208374.001513086  -208374.151422197
  Force two-norm initial, final = 124.96297 13.098214
  Force max component initial, final = 42.985388 3.8813196
  Final line search alpha, max atom move = 0.0056004926 0.021737301
  Iterations, force evaluations = 16 31

MPI task timing breakdown:
Section |  min time  |  avg time  |  max time  |%varavg| %total
---------------------------------------------------------------
Pair    | 1.3508e-05 | 0.017259   | 0.063307   |  17.3 |  8.48
Bond    | 2.463e-05  | 9.2227e-05 | 0.00020836 |   0.0 |  0.05
Kspace  | 0.13328    | 0.17932    | 0.19701    |   5.4 | 88.16
Neigh   | 0          | 0          | 0          |   0.0 |  0.00
Comm    | 0.0026171  | 0.0042226  | 0.0057339  |   1.8 |  2.08
Output  | 0          | 0          | 0          |   0.0 |  0.00
Modify  | 1.0893e-05 | 2.4553e-05 | 3.7963e-05 |   0.0 |  0.01
Other   |            | 0.002493   |            |       |  1.23

Nlocal:        66.6000 ave         216 max           0 min
Histogram: 8 0 8 0 0 0 0 0 0 4
Nghost:        2082.80 ave        3157 max         857 min
Histogram: 8 0 0 0 0 0 0 0 8 4
Neighs:        27362.7 ave      102301 max           0 min
Histogram: 8 4 4 0 0 0 0 0 0 4
FullNghs:      54675.9 ave      197755 max           0 min
Histogram: 8 8 0 0 0 0 0 0 0 4

Total # of neighbors = 1093518
Ave neighs/atom = 820.95946
Ave special neighs/atom = 0.43243243
Neighbor list builds = 0
Dangerous builds = 0
  min_modify integrator eulerexplicit tmax 10.0 tmin 0.0 delaystep 5           dtgrow 1.1 dtshrink 0.5 alpha0 0.1 alphashrink 0.99           vdfmax 100000 halfstepback no initialdelay no
  unfix freeze

  # Minimize bottom ho
  fix freeze immo_bottom_ho setforce 0.0 0.0 0.0
  minimize 1.0e-6 1.0e-9 1000 10000
PPPM initialization ...
  using 12-bit tables for long-range coulomb (../kspace.cpp:340)
  G vector (1/distance) = 0.28992484
  grid = 40 40 160
  stencil order = 5
  estimated absolute RMS force accuracy = 0.0003575219
  estimated relative force accuracy = 1.0766666e-06
  using double precision KISS FFT
  3d grid and FFT values/proc = 100920 46800
Per MPI rank memory allocation (min/avg/max) = 12.80 | 14.60 | 19.22 Mbytes
Step Temp PotEng 
  157634            0   -208374.15 
  157642            0   -208430.59 
Loop time of 0.108063 on 20 procs for 8 steps with 1332 atoms

99.3% CPU use with 20 MPI tasks x no OpenMP threads

Minimization stats:
  Stopping criterion = energy tolerance
  Energy initial, next-to-last, final = 
     -208374.151422197  -208430.527919961  -208430.590085924
  Force two-norm initial, final = 269.94862 10.860701
  Force max component initial, final = 65.181738 2.0246579
  Final line search alpha, max atom move = 0.029974840 0.060688797
  Iterations, force evaluations = 8 16

MPI task timing breakdown:
Section |  min time  |  avg time  |  max time  |%varavg| %total
---------------------------------------------------------------
Pair    | 9.366e-06  | 0.0091934  | 0.033749   |  12.6 |  8.51
Bond    | 1.29e-05   | 4.9766e-05 | 0.00010888 |   0.0 |  0.05
Kspace  | 0.070609   | 0.095159   | 0.10457    |   3.9 | 88.06
Neigh   | 0          | 0          | 0          |   0.0 |  0.00
Comm    | 0.001379   | 0.0022136  | 0.0030051  |   1.3 |  2.05
Output  | 0          | 0          | 0          |   0.0 |  0.00
Modify  | 5.291e-06  | 1.2573e-05 | 2.1036e-05 |   0.0 |  0.01
Other   |            | 0.001434   |            |       |  1.33

Nlocal:        66.6000 ave         216 max           0 min
Histogram: 8 0 8 0 0 0 0 0 0 4
Nghost:        2082.80 ave        3157 max         857 min
Histogram: 8 0 0 0 0 0 0 0 8 4
Neighs:        27363.0 ave      102293 max           0 min
Histogram: 8 4 4 0 0 0 0 0 0 4
FullNghs:      54675.9 ave      197755 max           0 min
Histogram: 8 8 0 0 0 0 0 0 0 4

Total # of neighbors = 1093518
Ave neighs/atom = 820.95946
Ave special neighs/atom = 0.43243243
Neighbor list builds = 0
Dangerous builds = 0
  min_modify integrator eulerexplicit tmax 10.0 tmin 0.0 delaystep 5           dtgrow 1.1 dtshrink 0.5 alpha0 0.1 alphashrink 0.99           vdfmax 100000 halfstepback no initialdelay no
  unfix freeze

  # Electrostatic relaxation
  fix  swp feo atom/swap 1 1 ${rand} ${temp} ke no types 6 7
  fix  swp feo atom/swap 1 1 4574249 ${temp} ke no types 6 7
  fix  swp feo atom/swap 1 1 4574249 405000 ke no types 6 7
  thermo 1000
  thermo_style custom step v_ftemp v_cnum pe f_swp[1] f_swp[2] v_rfet3 v_rfeo3
  run ${nsteps}
  run 26244
PPPM initialization ...
  using 12-bit tables for long-range coulomb (../kspace.cpp:340)
  G vector (1/distance) = 0.28992484
  grid = 40 40 160
  stencil order = 5
  estimated absolute RMS force accuracy = 0.0003575219
  estimated relative force accuracy = 1.0766666e-06
  using double precision KISS FFT
  3d grid and FFT values/proc = 100920 46800
Per MPI rank memory allocation (min/avg/max) = 11.68 | 13.48 | 18.09 Mbytes
Step v_ftemp v_cnum PotEng f_swp[1] f_swp[2] v_rfet3 v_rfeo3 
  157642       405000          107   -208430.59            0            0            1   0.66666667 
  158000       405000          107   -208897.48          358          276            1   0.66666667 
  159000       405000          107   -207930.15         1358         1038            1   0.66666667 
  160000       405000          107   -209285.77         2358         1810            1   0.66666667 
  161000       405000          107   -208922.82         3358         2581            1   0.66666667 
  162000       405000          107   -209468.11         4358         3368            1   0.66666667 
  163000       405000          107   -208944.45         5358         4120            1   0.66666667 
  164000       405000          107   -208595.25         6358         4901            1   0.66666667 
  165000       405000          107   -209517.78         7358         5655            1   0.66666667 
  166000       405000          107   -209290.25         8358         6448            1   0.66666667 
  167000       405000          107   -209359.06         9358         7239            1   0.66666667 
  168000       405000          107   -208729.29        10358         7990            1   0.66666667 
  169000       405000          107   -208509.58        11358         8749            1   0.66666667 
  170000       405000          107   -208983.69        12358         9528            1   0.66666667 
  171000       405000          107   -209100.88        13358        10293            1   0.66666667 
  172000       405000          107    -209002.1        14358        11068            1   0.66666667 
  173000       405000          107   -209445.56        15358        11811            1   0.66666667 
  174000       405000          107   -208172.86        16358        12571            1   0.66666667 
  175000       405000          107   -208789.92        17358        13349            1   0.66666667 
  176000       405000          107   -208596.56        18358        14100            1   0.66666667 
  177000       405000          107   -208433.83        19358        14877            1   0.66666667 
  178000       405000          107   -209203.64        20358        15620            1   0.66666667 
  179000       405000          107   -209031.35        21358        16385            1   0.66666667 
  180000       405000          107   -209057.29        22358        17144            1   0.66666667 
  181000       405000          107   -208944.98        23358        17913            1   0.66666667 
  182000       405000          107   -208970.52        24358        18683            1   0.66666667 
  183000       405000          107   -209086.65        25358        19450            1   0.66666667 
  183886       405000          107   -209053.81        26244        20124            1   0.66666667 
Loop time of 734.536 on 20 procs for 26244 steps with 1332 atoms

Performance: 1.543 ns/day, 15.549 hours/ns, 35.729 timesteps/s
99.4% CPU use with 20 MPI tasks x no OpenMP threads

MPI task timing breakdown:
Section |  min time  |  avg time  |  max time  |%varavg| %total
---------------------------------------------------------------
Pair    | 0.0094605  | 9.691      | 35.657     | 409.8 |  1.32
Bond    | 0.009769   | 0.059055   | 0.146      |  23.1 |  0.01
Kspace  | 109.75     | 135.74     | 145.56     | 109.8 | 18.48
Neigh   | 39.945     | 40.109     | 40.348     |   2.0 |  5.46
Comm    | 7.3398     | 8.6057     | 9.8188     |  31.7 |  1.17
Output  | 0.0025553  | 0.0038373  | 0.0054659  |   1.6 |  0.00
Modify  | 538.92     | 540.13     | 541.17     |   3.9 | 73.53
Other   |            | 0.1957     |            |       |  0.03

Nlocal:        66.6000 ave         216 max           0 min
Histogram: 8 0 8 0 0 0 0 0 0 4
Nghost:        2082.80 ave        3157 max         857 min
Histogram: 8 0 0 0 0 0 0 0 8 4
Neighs:        27363.7 ave      102292 max           0 min
Histogram: 8 4 4 0 0 0 0 0 0 4
FullNghs:      54675.9 ave      197755 max           0 min
Histogram: 8 8 0 0 0 0 0 0 0 4

Total # of neighbors = 1093518
Ave neighs/atom = 820.95946
Ave special neighs/atom = 0.43243243
Neighbor list builds = 52488
Dangerous builds = 0

  variable cnum equal (${cnum}-1)
  variable cnum equal (107-1)

  unfix swp
  thermo_style custom step temp pe
  write_data  001-dbt_3x3_${layer}L_fa_${type}_${cnum}_${temp}K.data
  write_data  001-dbt_3x3_17L_fa_${type}_${cnum}_${temp}K.data
  write_data  001-dbt_3x3_17L_fa_int_full_${cnum}_${temp}K.data
  write_data  001-dbt_3x3_17L_fa_int_full_106_${temp}K.data
  write_data  001-dbt_3x3_17L_fa_int_full_106_405000K.data
System init for write_data ...
PPPM initialization ...
  using 12-bit tables for long-range coulomb (../kspace.cpp:340)
  G vector (1/distance) = 0.28992484
  grid = 40 40 160
  stencil order = 5
  estimated absolute RMS force accuracy = 0.0003575219
  estimated relative force accuracy = 1.0766666e-06
  using double precision KISS FFT
  3d grid and FFT values/proc = 100920 46800

next temp
jump SELF minimize_temp

  variable ftemp equal v_temp

  # Minimize top formate
  fix freeze immo_top_fa setforce 0.0 0.0 0.0
  minimize 1.0e-6 1.0e-9 1000 10000
PPPM initialization ...
  using 12-bit tables for long-range coulomb (../kspace.cpp:340)
  G vector (1/distance) = 0.28992484
  grid = 40 40 160
  stencil order = 5
  estimated absolute RMS force accuracy = 0.0003575219
  estimated relative force accuracy = 1.0766666e-06
  using double precision KISS FFT
  3d grid and FFT values/proc = 100920 46800
Per MPI rank memory allocation (min/avg/max) = 12.80 | 14.60 | 19.22 Mbytes
Step Temp PotEng 
  183886            0   -209053.81 
  183904            0   -209094.79 
Loop time of 0.227801 on 20 procs for 18 steps with 1332 atoms

99.4% CPU use with 20 MPI tasks x no OpenMP threads

Minimization stats:
  Stopping criterion = energy tolerance
  Energy initial, next-to-last, final = 
     -209053.812524667  -209094.626632695  -209094.789109963
  Force two-norm initial, final = 139.11474 13.594781
  Force max component initial, final = 50.856233 3.7516320
  Final line search alpha, max atom move = 0.0056072164 0.021036213
  Iterations, force evaluations = 18 35

MPI task timing breakdown:
Section |  min time  |  avg time  |  max time  |%varavg| %total
---------------------------------------------------------------
Pair    | 1.5557e-05 | 0.019404   | 0.071313   |  18.3 |  8.52
Bond    | 2.7984e-05 | 0.00010134 | 0.00022653 |   0.0 |  0.04
Kspace  | 0.14891    | 0.20084    | 0.22071    |   5.7 | 88.17
Neigh   | 0          | 0          | 0          |   0.0 |  0.00
Comm    | 0.0029141  | 0.004694   | 0.0064042  |   1.9 |  2.06
Output  | 0          | 0          | 0          |   0.0 |  0.00
Modify  | 1.0792e-05 | 2.8147e-05 | 5.0234e-05 |   0.0 |  0.01
Other   |            | 0.00273    |            |       |  1.20

Nlocal:        66.6000 ave         216 max           0 min
Histogram: 8 0 8 0 0 0 0 0 0 4
Nghost:        2082.80 ave        3157 max         857 min
Histogram: 8 0 0 0 0 0 0 0 8 4
Neighs:        27363.7 ave      102292 max           0 min
Histogram: 8 4 4 0 0 0 0 0 0 4
FullNghs:      54675.9 ave      197755 max           0 min
Histogram: 8 8 0 0 0 0 0 0 0 4

Total # of neighbors = 1093518
Ave neighs/atom = 820.95946
Ave special neighs/atom = 0.43243243
Neighbor list builds = 0
Dangerous builds = 0
  min_modify integrator eulerexplicit tmax 10.0 tmin 0.0 delaystep 5           dtgrow 1.1 dtshrink 0.5 alpha0 0.1 alphashrink 0.99           vdfmax 100000 halfstepback no initialdelay no
  unfix freeze

  # Minimize top ho
  fix freeze immo_top_ho setforce 0.0 0.0 0.0
  minimize 1.0e-6 1.0e-9 1000 10000
PPPM initialization ...
  using 12-bit tables for long-range coulomb (../kspace.cpp:340)
  G vector (1/distance) = 0.28992484
  grid = 40 40 160
  stencil order = 5
  estimated absolute RMS force accuracy = 0.0003575219
  estimated relative force accuracy = 1.0766666e-06
  using double precision KISS FFT
  3d grid and FFT values/proc = 100920 46800
Per MPI rank memory allocation (min/avg/max) = 12.80 | 14.60 | 19.22 Mbytes
Step Temp PotEng 
  183904            0   -209094.79 
  183912            0   -209171.37 
Loop time of 0.10795 on 20 procs for 8 steps with 1332 atoms

98.9% CPU use with 20 MPI tasks x no OpenMP threads

Minimization stats:
  Stopping criterion = energy tolerance
  Energy initial, next-to-last, final = 
     -209094.789109963    -209171.2893073  -209171.374426743
  Force two-norm initial, final = 296.87515 13.190256
  Force max component initial, final = 69.429301 3.2353414
  Final line search alpha, max atom move = 0.025382002 0.082119440
  Iterations, force evaluations = 8 16

MPI task timing breakdown:
Section |  min time  |  avg time  |  max time  |%varavg| %total
---------------------------------------------------------------
Pair    | 9.559e-06  | 0.0091777  | 0.03369    |  12.6 |  8.50
Bond    | 1.3149e-05 | 4.8753e-05 | 0.00010781 |   0.0 |  0.05
Kspace  | 0.070543   | 0.095059   | 0.10444    |   3.9 | 88.06
Neigh   | 0          | 0          | 0          |   0.0 |  0.00
Comm    | 0.001375   | 0.0022035  | 0.0029956  |   1.3 |  2.04
Output  | 0          | 0          | 0          |   0.0 |  0.00
Modify  | 7.913e-06  | 1.3566e-05 | 2.2555e-05 |   0.0 |  0.01
Other   |            | 0.001448   |            |       |  1.34

Nlocal:        66.6000 ave         216 max           0 min
Histogram: 8 0 8 0 0 0 0 0 0 4
Nghost:        2080.40 ave        3153 max         852 min
Histogram: 8 0 0 0 0 0 0 0 8 4
Neighs:        27364.8 ave      102286 max           0 min
Histogram: 8 4 4 0 0 0 0 0 0 4
FullNghs:      54675.9 ave      197755 max           0 min
Histogram: 8 8 0 0 0 0 0 0 0 4

Total # of neighbors = 1093518
Ave neighs/atom = 820.95946
Ave special neighs/atom = 0.43243243
Neighbor list builds = 0
Dangerous builds = 0
  min_modify integrator eulerexplicit tmax 10.0 tmin 0.0 delaystep 5           dtgrow 1.1 dtshrink 0.5 alpha0 0.1 alphashrink 0.99           vdfmax 100000 halfstepback no initialdelay no
  unfix freeze

  # Minimize bottom formate
  fix freeze immo_bottom_fa setforce 0.0 0.0 0.0
  minimize 1.0e-6 1.0e-9 1000 10000
PPPM initialization ...
  using 12-bit tables for long-range coulomb (../kspace.cpp:340)
  G vector (1/distance) = 0.28992484
  grid = 40 40 160
  stencil order = 5
  estimated absolute RMS force accuracy = 0.0003575219
  estimated relative force accuracy = 1.0766666e-06
  using double precision KISS FFT
  3d grid and FFT values/proc = 100920 46800
Per MPI rank memory allocation (min/avg/max) = 12.80 | 14.60 | 19.22 Mbytes
Step Temp PotEng 
  183912            0   -209171.37 
  183923            0   -209196.64 
Loop time of 0.139396 on 20 procs for 11 steps with 1332 atoms

99.2% CPU use with 20 MPI tasks x no OpenMP threads

Minimization stats:
  Stopping criterion = energy tolerance
  Energy initial, next-to-last, final = 
     -209171.374426743  -209196.445436198  -209196.635423621
  Force two-norm initial, final = 119.35213 17.223357
  Force max component initial, final = 43.836361 9.9931157
  Final line search alpha, max atom move = 0.016574872 0.16563461
  Iterations, force evaluations = 11 21

MPI task timing breakdown:
Section |  min time  |  avg time  |  max time  |%varavg| %total
---------------------------------------------------------------
Pair    | 1.171e-05  | 0.01185    | 0.043456   |  14.3 |  8.50
Bond    | 1.5561e-05 | 6.1955e-05 | 0.00013961 |   0.0 |  0.04
Kspace  | 0.091212   | 0.12282    | 0.13496    |   4.5 | 88.11
Neigh   | 0          | 0          | 0          |   0.0 |  0.00
Comm    | 0.0017799  | 0.0028641  | 0.00389    |   1.4 |  2.05
Output  | 0          | 0          | 0          |   0.0 |  0.00
Modify  | 7.713e-06  | 1.6389e-05 | 2.7513e-05 |   0.0 |  0.01
Other   |            | 0.001783   |            |       |  1.28

Nlocal:        66.6000 ave         216 max           0 min
Histogram: 8 0 8 0 0 0 0 0 0 4
Nghost:        2080.40 ave        3153 max         852 min
Histogram: 8 0 0 0 0 0 0 0 8 4
Neighs:        27366.0 ave      102288 max           0 min
Histogram: 8 4 4 0 0 0 0 0 0 4
FullNghs:      54675.9 ave      197755 max           0 min
Histogram: 8 8 0 0 0 0 0 0 0 4

Total # of neighbors = 1093518
Ave neighs/atom = 820.95946
Ave special neighs/atom = 0.43243243
Neighbor list builds = 0
Dangerous builds = 0
  min_modify integrator eulerexplicit tmax 10.0 tmin 0.0 delaystep 5           dtgrow 1.1 dtshrink 0.5 alpha0 0.1 alphashrink 0.99           vdfmax 100000 halfstepback no initialdelay no
  unfix freeze

  # Minimize bottom ho
  fix freeze immo_bottom_ho setforce 0.0 0.0 0.0
  minimize 1.0e-6 1.0e-9 1000 10000
PPPM initialization ...
  using 12-bit tables for long-range coulomb (../kspace.cpp:340)
  G vector (1/distance) = 0.28992484
  grid = 40 40 160
  stencil order = 5
  estimated absolute RMS force accuracy = 0.0003575219
  estimated relative force accuracy = 1.0766666e-06
  using double precision KISS FFT
  3d grid and FFT values/proc = 100920 46800
Per MPI rank memory allocation (min/avg/max) = 12.80 | 14.60 | 19.22 Mbytes
Step Temp PotEng 
  183923            0   -209196.64 
  183931            0   -209254.28 
Loop time of 0.107985 on 20 procs for 8 steps with 1332 atoms

99.2% CPU use with 20 MPI tasks x no OpenMP threads

Minimization stats:
  Stopping criterion = energy tolerance
  Energy initial, next-to-last, final = 
     -209196.635423621  -209254.191876902  -209254.281141982
  Force two-norm initial, final = 280.05784 12.620377
  Force max component initial, final = 89.210269 3.0741806
  Final line search alpha, max atom move = 0.028826678 0.088618412
  Iterations, force evaluations = 8 16

MPI task timing breakdown:
Section |  min time  |  avg time  |  max time  |%varavg| %total
---------------------------------------------------------------
Pair    | 9.028e-06  | 0.0091941  | 0.033557   |  12.6 |  8.51
Bond    | 1.3016e-05 | 4.8059e-05 | 0.00010613 |   0.0 |  0.04
Kspace  | 0.070662   | 0.095024   | 0.10446    |   3.9 | 88.00
Neigh   | 0          | 0          | 0          |   0.0 |  0.00
Comm    | 0.0013724  | 0.0022462  | 0.0030552  |   1.3 |  2.08
Output  | 0          | 0          | 0          |   0.0 |  0.00
Modify  | 7.312e-06  | 1.3739e-05 | 2.2119e-05 |   0.0 |  0.01
Other   |            | 0.001459   |            |       |  1.35

Nlocal:        66.6000 ave         216 max           0 min
Histogram: 8 0 8 0 0 0 0 0 0 4
Nghost:        2080.40 ave        3153 max         852 min
Histogram: 8 0 0 0 0 0 0 0 8 4
Neighs:        27367.5 ave      102206 max           0 min
Histogram: 8 4 4 0 0 0 0 0 0 4
FullNghs:      54675.9 ave      197755 max           0 min
Histogram: 8 8 0 0 0 0 0 0 0 4

Total # of neighbors = 1093518
Ave neighs/atom = 820.95946
Ave special neighs/atom = 0.43243243
Neighbor list builds = 0
Dangerous builds = 0
  min_modify integrator eulerexplicit tmax 10.0 tmin 0.0 delaystep 5           dtgrow 1.1 dtshrink 0.5 alpha0 0.1 alphashrink 0.99           vdfmax 100000 halfstepback no initialdelay no
  unfix freeze

  # Electrostatic relaxation
  fix  swp feo atom/swap 1 1 ${rand} ${temp} ke no types 6 7
  fix  swp feo atom/swap 1 1 5979850 ${temp} ke no types 6 7
  fix  swp feo atom/swap 1 1 5979850 364500 ke no types 6 7
  thermo 1000
  thermo_style custom step v_ftemp v_cnum pe f_swp[1] f_swp[2] v_rfet3 v_rfeo3
  run ${nsteps}
  run 26244
PPPM initialization ...
  using 12-bit tables for long-range coulomb (../kspace.cpp:340)
  G vector (1/distance) = 0.28992484
  grid = 40 40 160
  stencil order = 5
  estimated absolute RMS force accuracy = 0.0003575219
  estimated relative force accuracy = 1.0766666e-06
  using double precision KISS FFT
  3d grid and FFT values/proc = 100920 46800
Per MPI rank memory allocation (min/avg/max) = 11.68 | 13.48 | 18.09 Mbytes
Step v_ftemp v_cnum PotEng f_swp[1] f_swp[2] v_rfet3 v_rfeo3 
  183931       364500          106   -209254.28            0            0            1   0.66666667 
  184000       364500          106   -208843.79           69           50            1   0.66666667 
  185000       364500          106   -209288.54         1069          823            1   0.66666667 
  186000       364500          106   -209059.42         2069         1577            1   0.66666667 
  187000       364500          106   -208633.48         3069         2327            1   0.66666667 
  188000       364500          106   -209170.25         4069         3092            1   0.66666667 
  189000       364500          106   -208852.98         5069         3838            1   0.66666667 
  190000       364500          106   -207845.62         6069         4637            1   0.66666667 
  191000       364500          106   -209313.23         7069         5390            1   0.66666667 
  192000       364500          106   -209153.54         8069         6154            1   0.66666667 
  193000       364500          106   -209449.09         9069         6915            1   0.66666667 
  194000       364500          106   -208818.65        10069         7681            1   0.66666667 
[...]
 2929000            2            2   -211214.55        13852            0            1   0.66666667 
 2930000            2            2   -211214.55        14852            0            1   0.66666667 
 2931000            2            2   -211214.55        15852            0            1   0.66666667 
 2932000            2            2   -211214.55        16852            0            1   0.66666667 
 2933000            2            2   -211214.55        17852            0            1   0.66666667 
 2934000            2            2   -211214.55        18852            0            1   0.66666667 
 2935000            2            2   -211214.55        19852            0            1   0.66666667 
 2936000            2            2   -211214.55        20852            0            1   0.66666667 
 2937000            2            2   -211214.55        21852            0            1   0.66666667 
 2938000            2            2   -211214.55        22852            0            1   0.66666667 
 2939000            2            2   -211214.55        23852            0            1   0.66666667 
 2940000            2            2   -211214.55        24852            0            1   0.66666667 
 2941000            2            2   -211214.55        25852            0            1   0.66666667 
 2941392            2            2   -211214.55        26244            0            1   0.66666667 
Loop time of 734.206 on 20 procs for 26244 steps with 1332 atoms

Performance: 1.544 ns/day, 15.542 hours/ns, 35.745 timesteps/s
99.4% CPU use with 20 MPI tasks x no OpenMP threads

MPI task timing breakdown:
Section |  min time  |  avg time  |  max time  |%varavg| %total
---------------------------------------------------------------
Pair    | 0.0077774  | 9.6652     | 35.646     | 410.3 |  1.32
Bond    | 0.010097   | 0.051924   | 0.11773    |  20.3 |  0.01
Kspace  | 109.4      | 135.41     | 145.2      | 109.9 | 18.44
Neigh   | 40.04      | 40.176     | 40.368     |   1.7 |  5.47
Comm    | 7.3458     | 8.5577     | 9.7508     |  31.1 |  1.17
Output  | 0.0024896  | 0.0037971  | 0.0054363  |   1.6 |  0.00
Modify  | 538.94     | 540.15     | 541.18     |   3.8 | 73.57
Other   |            | 0.1936     |            |       |  0.03

Nlocal:        66.6000 ave         216 max           0 min
Histogram: 8 0 8 0 0 0 0 0 0 4
Nghost:        2081.30 ave        3153 max         856 min
Histogram: 8 0 0 0 0 0 0 0 8 4
Neighs:        27375.7 ave      102208 max           0 min
Histogram: 8 4 4 0 0 0 0 0 0 4
FullNghs:      54675.9 ave      197755 max           0 min
Histogram: 8 8 0 0 0 0 0 0 0 4

Total # of neighbors = 1093518
Ave neighs/atom = 820.95946
Ave special neighs/atom = 0.43243243
Neighbor list builds = 52488
Dangerous builds = 0

  variable cnum equal (${cnum}-1)
  variable cnum equal (2-1)

  unfix swp
  thermo_style custom step temp pe
  write_data  001-dbt_3x3_${layer}L_fa_${type}_${cnum}_${temp}K.data
  write_data  001-dbt_3x3_17L_fa_${type}_${cnum}_${temp}K.data
  write_data  001-dbt_3x3_17L_fa_int_full_${cnum}_${temp}K.data
  write_data  001-dbt_3x3_17L_fa_int_full_1_${temp}K.data
  write_data  001-dbt_3x3_17L_fa_int_full_1_2K.data
System init for write_data ...
PPPM initialization ...
  using 12-bit tables for long-range coulomb (../kspace.cpp:340)
  G vector (1/distance) = 0.28992484
  grid = 40 40 160
  stencil order = 5
  estimated absolute RMS force accuracy = 0.0003575219
  estimated relative force accuracy = 1.0766666e-06
  using double precision KISS FFT
  3d grid and FFT values/proc = 100920 46800

next temp
jump SELF minimize_temp

  variable ftemp equal v_temp

  # Minimize top formate
  fix freeze immo_top_fa setforce 0.0 0.0 0.0
  minimize 1.0e-6 1.0e-9 1000 10000
PPPM initialization ...
  using 12-bit tables for long-range coulomb (../kspace.cpp:340)
  G vector (1/distance) = 0.28992484
  grid = 40 40 160
  stencil order = 5
  estimated absolute RMS force accuracy = 0.0003575219
  estimated relative force accuracy = 1.0766666e-06
  using double precision KISS FFT
  3d grid and FFT values/proc = 100920 46800
Per MPI rank memory allocation (min/avg/max) = 12.80 | 14.60 | 19.22 Mbytes
Step Temp PotEng 
 2941392            0   -211214.55 
 2941393            0   -211214.55 
Loop time of 0.0194482 on 20 procs for 1 steps with 1332 atoms

97.9% CPU use with 20 MPI tasks x no OpenMP threads

Minimization stats:
  Stopping criterion = energy tolerance
  Energy initial, next-to-last, final = 
     -211214.548334713  -211214.548334713  -211214.550362049
  Force two-norm initial, final = 2.0172719 2.5734949
  Force max component initial, final = 0.49403662 0.69280752
  Final line search alpha, max atom move = 0.20241415 0.14023404
  Iterations, force evaluations = 1 2

MPI task timing breakdown:
Section |  min time  |  avg time  |  max time  |%varavg| %total
---------------------------------------------------------------
Pair    | 4.762e-06  | 0.0016179  | 0.0059215  |   5.3 |  8.32
Bond    | 2.839e-06  | 8.5576e-06 | 1.9168e-05 |   0.0 |  0.04
Kspace  | 0.012601   | 0.016904   | 0.018554   |   1.6 | 86.92
Neigh   | 0          | 0          | 0          |   0.0 |  0.00
Comm    | 0.0002433  | 0.00038865 | 0.00052656 |   0.0 |  2.00
Output  | 0          | 0          | 0          |   0.0 |  0.00
Modify  | 1.167e-06  | 2.7731e-06 | 3.944e-06  |   0.0 |  0.01
Other   |            | 0.0005268  |            |       |  2.71

Nlocal:        66.6000 ave         216 max           0 min
Histogram: 8 0 8 0 0 0 0 0 0 4
Nghost:        2081.30 ave        3153 max         856 min
Histogram: 8 0 0 0 0 0 0 0 8 4
Neighs:        27375.7 ave      102208 max           0 min
Histogram: 8 4 4 0 0 0 0 0 0 4
FullNghs:      54675.9 ave      197755 max           0 min
Histogram: 8 8 0 0 0 0 0 0 0 4

Total # of neighbors = 1093518
Ave neighs/atom = 820.95946
Ave special neighs/atom = 0.43243243
Neighbor list builds = 0
Dangerous builds = 0
  min_modify integrator eulerexplicit tmax 10.0 tmin 0.0 delaystep 5           dtgrow 1.1 dtshrink 0.5 alpha0 0.1 alphashrink 0.99           vdfmax 100000 halfstepback no initialdelay no
  unfix freeze

  # Minimize top ho
  fix freeze immo_top_ho setforce 0.0 0.0 0.0
  minimize 1.0e-6 1.0e-9 1000 10000
PPPM initialization ...
  using 12-bit tables for long-range coulomb (../kspace.cpp:340)
  G vector (1/distance) = 0.28992484
  grid = 40 40 160
  stencil order = 5
  estimated absolute RMS force accuracy = 0.0003575219
  estimated relative force accuracy = 1.0766666e-06
  using double precision KISS FFT
  3d grid and FFT values/proc = 100920 46800
Per MPI rank memory allocation (min/avg/max) = 12.80 | 14.60 | 19.22 Mbytes
Step Temp PotEng 
 2941393            0   -211214.55 
 2941394            0   -211214.55 
Loop time of 0.0194447 on 20 procs for 1 steps with 1332 atoms

99.8% CPU use with 20 MPI tasks x no OpenMP threads

Minimization stats:
  Stopping criterion = energy tolerance
  Energy initial, next-to-last, final = 
     -211214.550362049  -211214.550362049  -211214.550369575
  Force two-norm initial, final = 0.38085979 0.25772448
  Force max component initial, final = 0.077853172 0.061321132
  Final line search alpha, max atom move = 1.0000000 0.061321132
  Iterations, force evaluations = 1 2

MPI task timing breakdown:
Section |  min time  |  avg time  |  max time  |%varavg| %total
---------------------------------------------------------------
Pair    | 4.832e-06  | 0.0016171  | 0.005914   |   5.3 |  8.32
Bond    | 2.711e-06  | 8.6458e-06 | 1.9032e-05 |   0.0 |  0.04
Kspace  | 0.012592   | 0.016888   | 0.018545   |   1.6 | 86.85
Neigh   | 0          | 0          | 0          |   0.0 |  0.00
Comm    | 0.00024065 | 0.00039668 | 0.00053667 |   0.0 |  2.04
Output  | 0          | 0          | 0          |   0.0 |  0.00
Modify  | 1.365e-06  | 2.8032e-06 | 4.561e-06  |   0.0 |  0.01
Other   |            | 0.0005313  |            |       |  2.73

Nlocal:        66.6000 ave         216 max           0 min
Histogram: 8 0 8 0 0 0 0 0 0 4
Nghost:        2081.30 ave        3153 max         856 min
Histogram: 8 0 0 0 0 0 0 0 8 4
Neighs:        27375.8 ave      102208 max           0 min
Histogram: 8 4 4 0 0 0 0 0 0 4
FullNghs:      54675.9 ave      197755 max           0 min
Histogram: 8 8 0 0 0 0 0 0 0 4

Total # of neighbors = 1093518
Ave neighs/atom = 820.95946
Ave special neighs/atom = 0.43243243
Neighbor list builds = 0
Dangerous builds = 0
  min_modify integrator eulerexplicit tmax 10.0 tmin 0.0 delaystep 5           dtgrow 1.1 dtshrink 0.5 alpha0 0.1 alphashrink 0.99           vdfmax 100000 halfstepback no initialdelay no
  unfix freeze

  # Minimize bottom formate
  fix freeze immo_bottom_fa setforce 0.0 0.0 0.0
  minimize 1.0e-6 1.0e-9 1000 10000
PPPM initialization ...
  using 12-bit tables for long-range coulomb (../kspace.cpp:340)
  G vector (1/distance) = 0.28992484
  grid = 40 40 160
  stencil order = 5
  estimated absolute RMS force accuracy = 0.0003575219
  estimated relative force accuracy = 1.0766666e-06
  using double precision KISS FFT
  3d grid and FFT values/proc = 100920 46800
Per MPI rank memory allocation (min/avg/max) = 12.80 | 14.60 | 19.22 Mbytes
Step Temp PotEng 
 2941394            0   -211214.55 
 2941395            0   -211214.55 
Loop time of 0.0195536 on 20 procs for 1 steps with 1332 atoms

99.9% CPU use with 20 MPI tasks x no OpenMP threads

Minimization stats:
  Stopping criterion = energy tolerance
  Energy initial, next-to-last, final = 
     -211214.550369575  -211214.550369575  -211214.551130082
  Force two-norm initial, final = 1.4520943 1.7846708
  Force max component initial, final = 0.38748229 0.53514541
  Final line search alpha, max atom move = 0.25807631 0.13810835
  Iterations, force evaluations = 1 2

MPI task timing breakdown:
Section |  min time  |  avg time  |  max time  |%varavg| %total
---------------------------------------------------------------
Pair    | 4.237e-06  | 0.0016217  | 0.0059804  |   5.3 |  8.29
Bond    | 2.892e-06  | 8.9035e-06 | 2.1023e-05 |   0.0 |  0.05
Kspace  | 0.012616   | 0.016972   | 0.018626   |   1.6 | 86.80
Neigh   | 0          | 0          | 0          |   0.0 |  0.00
Comm    | 0.00026905 | 0.00041613 | 0.00055296 |   0.0 |  2.13
Output  | 0          | 0          | 0          |   0.0 |  0.00
Modify  | 1.111e-06  | 2.6758e-06 | 4.566e-06  |   0.0 |  0.01
Other   |            | 0.0005318  |            |       |  2.72

Nlocal:        66.6000 ave         216 max           0 min
Histogram: 8 0 8 0 0 0 0 0 0 4
Nghost:        2081.30 ave        3153 max         856 min
Histogram: 8 0 0 0 0 0 0 0 8 4
Neighs:        27375.7 ave      102206 max           0 min
Histogram: 8 4 4 0 0 0 0 0 0 4
FullNghs:      54675.9 ave      197755 max           0 min
Histogram: 8 8 0 0 0 0 0 0 0 4

Total # of neighbors = 1093518
Ave neighs/atom = 820.95946
Ave special neighs/atom = 0.43243243
Neighbor list builds = 0
Dangerous builds = 0
  min_modify integrator eulerexplicit tmax 10.0 tmin 0.0 delaystep 5           dtgrow 1.1 dtshrink 0.5 alpha0 0.1 alphashrink 0.99           vdfmax 100000 halfstepback no initialdelay no
  unfix freeze

  # Minimize bottom ho
  fix freeze immo_bottom_ho setforce 0.0 0.0 0.0
  minimize 1.0e-6 1.0e-9 1000 10000
PPPM initialization ...
  using 12-bit tables for long-range coulomb (../kspace.cpp:340)
  G vector (1/distance) = 0.28992484
  grid = 40 40 160
  stencil order = 5
  estimated absolute RMS force accuracy = 0.0003575219
  estimated relative force accuracy = 1.0766666e-06
  using double precision KISS FFT
  3d grid and FFT values/proc = 100920 46800
Per MPI rank memory allocation (min/avg/max) = 12.80 | 14.60 | 19.22 Mbytes
Step Temp PotEng 
 2941395            0   -211214.55 
 2941396            0   -211214.55 
Loop time of 0.133287 on 20 procs for 1 steps with 1332 atoms

99.4% CPU use with 20 MPI tasks x no OpenMP threads

Minimization stats:
  Stopping criterion = energy tolerance
  Energy initial, next-to-last, final = 
     -211214.551130082  -211214.551130082  -211214.551151943
  Force two-norm initial, final = 0.31380751 0.18351516
  Force max component initial, final = 0.074541802 0.044105337
  Final line search alpha, max atom move = 0.0019531250 8.6143236e-05
  Iterations, force evaluations = 1 20

MPI task timing breakdown:
Section |  min time  |  avg time  |  max time  |%varavg| %total
---------------------------------------------------------------
Pair    | 9.916e-06  | 0.011289   | 0.041602   |  14.0 |  8.47
Bond    | 1.5683e-05 | 5.5392e-05 | 0.00012411 |   0.0 |  0.04
Kspace  | 0.087256   | 0.11757    | 0.12911    |   4.3 | 88.21
Neigh   | 0          | 0          | 0          |   0.0 |  0.00
Comm    | 0.0017425  | 0.0027733  | 0.0037493  |   1.4 |  2.08
Output  | 0          | 0          | 0          |   0.0 |  0.00
Modify  | 7.668e-06  | 1.6132e-05 | 2.7286e-05 |   0.0 |  0.01
Other   |            | 0.001587   |            |       |  1.19

Nlocal:        66.6000 ave         216 max           0 min
Histogram: 8 0 8 0 0 0 0 0 0 4
Nghost:        2081.30 ave        3153 max         856 min
Histogram: 8 0 0 0 0 0 0 0 8 4
Neighs:        27375.7 ave      102206 max           0 min
Histogram: 8 4 4 0 0 0 0 0 0 4
FullNghs:      54675.9 ave      197755 max           0 min
Histogram: 8 8 0 0 0 0 0 0 0 4

Total # of neighbors = 1093518
Ave neighs/atom = 820.95946
Ave special neighs/atom = 0.43243243
Neighbor list builds = 0
Dangerous builds = 0
  min_modify integrator eulerexplicit tmax 10.0 tmin 0.0 delaystep 5           dtgrow 1.1 dtshrink 0.5 alpha0 0.1 alphashrink 0.99           vdfmax 100000 halfstepback no initialdelay no
  unfix freeze

  # Electrostatic relaxation
  fix  swp feo atom/swap 1 1 ${rand} ${temp} ke no types 6 7
  fix  swp feo atom/swap 1 1 4097646 ${temp} ke no types 6 7
  fix  swp feo atom/swap 1 1 4097646 1 ke no types 6 7
  thermo 1000
  thermo_style custom step v_ftemp v_cnum pe f_swp[1] f_swp[2] v_rfet3 v_rfeo3
  run ${nsteps}
  run 26244
PPPM initialization ...
  using 12-bit tables for long-range coulomb (../kspace.cpp:340)
  G vector (1/distance) = 0.28992484
  grid = 40 40 160
  stencil order = 5
  estimated absolute RMS force accuracy = 0.0003575219
  estimated relative force accuracy = 1.0766666e-06
  using double precision KISS FFT
  3d grid and FFT values/proc = 100920 46800
Per MPI rank memory allocation (min/avg/max) = 11.68 | 13.48 | 18.09 Mbytes
Step v_ftemp v_cnum PotEng f_swp[1] f_swp[2] v_rfet3 v_rfeo3 
 2941396            1            1   -211214.55            0            0            1   0.66666667 
 2942000            1            1   -211214.55          604            0            1   0.66666667 
 2943000            1            1   -211214.55         1604            0            1   0.66666667 
 2944000            1            1   -211214.55         2604            0            1   0.66666667 
 2945000            1            1   -211214.55         3604            0            1   0.66666667 
 2946000            1            1   -211214.55         4604            0            1   0.66666667 
 2947000            1            1   -211214.55         5604            0            1   0.66666667 
 2948000            1            1   -211214.55         6604            0            1   0.66666667 
 2949000            1            1   -211214.55         7604            0            1   0.66666667 
 2950000            1            1   -211214.55         8604            0            1   0.66666667 
 2951000            1            1   -211214.55         9604            0            1   0.66666667 
 2952000            1            1   -211214.55        10604            0            1   0.66666667 
 2953000            1            1   -211214.55        11604            0            1   0.66666667 
 2954000            1            1   -211214.55        12604            0            1   0.66666667 
 2955000            1            1   -211214.55        13604            0            1   0.66666667 
 2956000            1            1   -211214.55        14604            0            1   0.66666667 
 2957000            1            1   -211214.55        15604            0            1   0.66666667 
 2958000            1            1   -211214.55        16604            0            1   0.66666667 
 2959000            1            1   -211214.55        17604            0            1   0.66666667 
 2960000            1            1   -211214.55        18604            0            1   0.66666667 
 2961000            1            1   -211214.55        19604            0            1   0.66666667 
 2962000            1            1   -211214.55        20604            0            1   0.66666667 
 2963000            1            1   -211214.55        21604            0            1   0.66666667 
 2964000            1            1   -211214.55        22604            0            1   0.66666667 
 2965000            1            1   -211214.55        23604            0            1   0.66666667 
 2966000            1            1   -211214.55        24604            0            1   0.66666667 
 2967000            1            1   -211214.55        25604            0            1   0.66666667 
 2967640            1            1   -211214.55        26244            0            1   0.66666667 
Loop time of 732.286 on 20 procs for 26244 steps with 1332 atoms

Performance: 1.548 ns/day, 15.502 hours/ns, 35.838 timesteps/s
99.4% CPU use with 20 MPI tasks x no OpenMP threads

MPI task timing breakdown:
Section |  min time  |  avg time  |  max time  |%varavg| %total
---------------------------------------------------------------
Pair    | 0.0095564  | 9.6284     | 35.366     | 408.9 |  1.31
Bond    | 0.010086   | 0.050814   | 0.11504    |  20.5 |  0.01
Kspace  | 109.55     | 135.33     | 145.09     | 109.3 | 18.48
Neigh   | 39.746     | 39.898     | 40.102     |   1.9 |  5.45
Comm    | 7.3069     | 8.5401     | 9.746      |  31.6 |  1.17
Output  | 0.0022327  | 0.0035145  | 0.0051436  |   1.6 |  0.00
Modify  | 537.42     | 538.64     | 539.68     |   3.9 | 73.56
Other   |            | 0.1946     |            |       |  0.03

Nlocal:        66.6000 ave         216 max           0 min
Histogram: 8 0 8 0 0 0 0 0 0 4
Nghost:        2081.30 ave        3153 max         856 min
Histogram: 8 0 0 0 0 0 0 0 8 4
Neighs:        27375.7 ave      102206 max           0 min
Histogram: 8 4 4 0 0 0 0 0 0 4
FullNghs:      54675.9 ave      197755 max           0 min
Histogram: 8 8 0 0 0 0 0 0 0 4

Total # of neighbors = 1093518
Ave neighs/atom = 820.95946
Ave special neighs/atom = 0.43243243
Neighbor list builds = 52488
Dangerous builds = 0

  variable cnum equal (${cnum}-1)
  variable cnum equal (1-1)

  unfix swp
  thermo_style custom step temp pe
  write_data  001-dbt_3x3_${layer}L_fa_${type}_${cnum}_${temp}K.data
  write_data  001-dbt_3x3_17L_fa_${type}_${cnum}_${temp}K.data
  write_data  001-dbt_3x3_17L_fa_int_full_${cnum}_${temp}K.data
  write_data  001-dbt_3x3_17L_fa_int_full_0_${temp}K.data
  write_data  001-dbt_3x3_17L_fa_int_full_0_1K.data
System init for write_data ...
PPPM initialization ...
  using 12-bit tables for long-range coulomb (../kspace.cpp:340)
  G vector (1/distance) = 0.28992484
  grid = 40 40 160
  stencil order = 5
  estimated absolute RMS force accuracy = 0.0003575219
  estimated relative force accuracy = 1.0766666e-06
  using double precision KISS FFT
  3d grid and FFT values/proc = 100920 46800

next temp
jump SELF minimize_temp

write_data  001-dbt_3x3_${layer}L_fa_${type}_qeq.data
write_data  001-dbt_3x3_17L_fa_${type}_qeq.data
write_data  001-dbt_3x3_17L_fa_int_full_qeq.data
System init for write_data ...
PPPM initialization ...
  using 12-bit tables for long-range coulomb (../kspace.cpp:340)
  G vector (1/distance) = 0.28992484
  grid = 40 40 160
  stencil order = 5
  estimated absolute RMS force accuracy = 0.0003575219
  estimated relative force accuracy = 1.0766666e-06
  using double precision KISS FFT
  3d grid and FFT values/proc = 100920 46800

Total wall time: 22:59:15
