LAMMPS data file via write_data, version 17 Feb 2022, timestep = 0

148 atoms
10 atom types
20 bonds
6 bond types
12 angles
6 angle types
0 dihedrals
2 dihedral types
4 impropers
2 improper types

0 8.48 xlo xhi
0 8.48 ylo yhi
35.929417 100.267417 zlo zhi

Masses

1 12.011
2 1.008
3 15.9994
4 15.9994
5 1.008
6 55.845
7 55.845
8 15.9994
9 15.9994
10 1.008

Pair Coeffs # lj/cut/coul/cut

1 0.0988 3.31521
2 0.0161 2.4473
3 0.1463 3.04812
4 0.093 3.24287
5 0.0047 0.537925
6 9.0298e-07 4.9062
7 9.0298e-07 4.9062
8 0.1554 3.16554
9 0.1554 3.16554
10 0 0

Bond Coeffs # harmonic

1 361.8 1.105
2 652.57 1.218
3 383.13 1.351
4 563.51 0.973
5 554.135 1
6 0 2.08

Angle Coeffs # harmonic

1 51.617 106.55
2 65.93 123.65
3 65.262 109.49
4 115.745 122.1
5 118.817 130.25
6 30 109.47

Dihedral Coeffs # fourier

1 1 2.3 2 180
2 2 2.3 2 180 1.9 1 0

Improper Coeffs # cvff

1 10.5 -1 2
2 10.5 -1 2

Atoms # full

21 0 1 0.731 3.2607609999999996 7.6990229999999995 57.029417 -1 0 0
20 0 2 -0.123 3.2607609999999996 7.6990229999999995 55.929417 -1 0 0
12 0 1 0.731 7.678000000000001 3.4379999999999997 57.029417 -1 0 0
11 0 2 -0.123 7.678000000000001 3.4379999999999997 55.929417 -1 0 0
52 0 8 -1.05 6.478013000000001 6.676275 61.775251999999995 -1 0 0
8 0 8 -1.05 6.404343000000001 0.3162749999999974 59.655252 -1 1 0
32 0 8 -1.05 4.284343 2.4362749999999984 63.82158199999999 0 1 0
48 0 8 -1.05 4.358013 6.6026050000000005 63.89525199999999 -1 0 0
41 0 8 -1.05 0.11801299999999859 4.556274999999999 61.701581999999995 0 0 0
35 0 8 -1.05 6.404343000000001 2.3626039999999975 61.701581999999995 -1 1 0
15 0 9 -0.975 0.11801299999999859 6.6026050000000005 59.655252 0 0 0
29 0 8 -1.05 2.1643419999999987 0.3162749999999974 63.89525199999999 0 1 0
37 0 8 -1.05 6.478013000000001 0.2426049999999993 63.82158199999999 -1 1 0
46 0 8 -1.05 4.284343 4.4826049999999995 61.775251999999995 0 1 0
42 0 8 -1.05 2.1643419999999987 6.6026050000000005 61.701581999999995 0 0 0
50 0 8 -1.05 6.404343000000001 4.556274999999999 63.89525199999999 -1 0 0
44 0 8 -1.05 2.2380129999999987 4.4826049999999995 63.82158199999999 0 1 0
25 0 8 -1.05 0.04434299999999958 0.2426049999999993 61.775251999999995 0 1 0
7 0 9 -0.975 4.358013 2.3626039999999975 59.655252 -1 1 0
31 0 8 -1.05 2.2380129999999987 2.4362749999999984 61.775251999999995 0 1 0
34 0 8 -1.05 4.358013 0.3162749999999974 61.701581999999995 -1 1 0
27 0 8 -1.05 0.11801299999999859 2.3626039999999975 63.89525199999999 0 1 0
39 0 8 -1.05 0.04434299999999958 6.676275 63.82158199999999 0 0 0
17 0 8 -1.05 2.1643419999999987 4.556274999999999 59.655252 0 0 0
26 0 7 1.575 0.08117799999999864 0.27943999999999747 63.858416999999996 0 1 0
9 0 6 1.05 6.441178000000001 2.3994399999999985 59.618416999999994 -1 1 0
19 0 7 1.575 2.2011779999999987 6.6394400000000005 59.618416999999994 0 0 0
47 0 7 1.575 4.321178 4.5194399999999995 63.858416999999996 -1 0 0
43 0 7 1.575 2.2011779999999987 4.5194399999999995 61.73841699999999 0 0 0
40 0 6 1.05 0.08117799999999864 6.6394400000000005 61.73841699999999 0 0 0
5 0 7 1.575 4.321178 0.27943999999999747 59.618416999999994 -1 1 0
33 0 6 1.05 4.321178 2.3994399999999985 61.73841699999999 -1 1 0
36 0 6 1.05 6.441178000000001 0.27943999999999747 61.73841699999999 -1 1 0
30 0 7 1.575 2.2011779999999987 2.3994399999999985 63.858416999999996 0 1 0
51 0 7 1.575 6.441178000000001 6.6394400000000005 63.858416999999996 -1 0 0
14 0 6 1.05 0.08117799999999864 4.5194399999999995 59.618416999999994 0 0 0
28 0 6 1.05 1.1411779999999991 1.3394399999999997 60.678416999999996 0 1 0
45 0 7 1.575 3.2611779999999992 7.69944 62.798417 0 0 0
38 0 7 1.575 7.501178 3.459439999999999 62.798417 -1 1 0
49 0 7 1.575 5.381178 5.57944 60.678416999999996 -1 0 0
3 0 8 -1.05 2.2380129999999987 0.2426049999999993 59.581582000000004 0 1 0
1 0 9 -0.975 0.04434299999999958 2.4362749999999984 59.581582000000004 0 1 0
22 0 9 -0.975 4.284343 6.676275 59.581582000000004 0 0 0
24 0 8 -1.05 6.478013000000001 4.4826049999999995 59.581582000000004 -1 1 0
4 0 3 -0.804 4.320761 0.2790229999999996 57.729417 -1 1 0
18 0 3 -0.804 2.200761 6.639022999999999 57.729417 -1 0 0
2 0 10 0.425 0.8827609999999995 1.4810230000000004 59.136417 0 1 0
6 0 10 0.425 4.357761 2.3630229999999983 58.136417 -1 1 0
16 0 3 -0.804 0.258 4.498 57.729417 0 0 0
10 0 3 -0.804 6.618 2.378 57.729417 -1 0 0
23 0 10 0.425 5.3 5.7 59.136417 0 0 0
13 0 10 0.425 0 6.582 58.136417 0 0 0
96 0 8 -1.05 6.478013000000001 6.676275 70.25525199999998 -1 0 0
83 0 8 -1.05 6.404343000000001 0.3162749999999974 68.135252 -1 1 0
88 0 8 -1.05 0.11801299999999859 4.556274999999999 70.18158199999998 0 0 0
84 0 8 -1.05 6.404343000000001 2.3626039999999975 70.18158199999998 -1 1 0
89 0 8 -1.05 0.11801299999999859 6.6026050000000005 68.135252 0 0 0
94 0 8 -1.05 4.284343 4.4826049999999995 70.25525199999998 0 1 0
91 0 8 -1.05 2.1643419999999987 6.6026050000000005 70.18158199999998 0 0 0
77 0 8 -1.05 0.04434299999999958 0.2426049999999993 70.25525199999998 0 1 0
82 0 8 -1.05 4.358013 2.3626039999999975 68.135252 -1 1 0
79 0 8 -1.05 2.2380129999999987 2.4362749999999984 70.25525199999998 0 1 0
81 0 8 -1.05 4.358013 0.3162749999999974 70.18158199999998 -1 1 0
90 0 8 -1.05 2.1643419999999987 4.556274999999999 68.135252 0 0 0
63 0 7 1.575 6.441178000000001 2.3994399999999985 68.09841699999998 -1 1 0
68 0 6 1.05 2.2011779999999987 6.6394400000000005 68.09841699999998 0 0 0
92 0 7 1.575 2.2011779999999987 4.5194399999999995 70.21841699999999 0 0 0
87 0 7 1.575 0.08117799999999864 6.6394400000000005 70.21841699999999 0 0 0
61 0 7 1.575 4.321178 0.27943999999999747 68.09841699999998 -1 1 0
80 0 7 1.575 4.321178 2.3994399999999985 70.21841699999999 -1 1 0
85 0 7 1.575 6.441178000000001 0.27943999999999747 70.21841699999999 -1 1 0
66 0 7 1.575 0.08117799999999864 4.5194399999999995 68.09841699999998 0 0 0
78 0 7 1.575 1.1411779999999991 1.3394399999999997 69.158417 0 1 0
93 0 7 1.575 3.2611779999999992 7.69944 71.27841699999999 0 0 0
86 0 7 1.575 7.501178 3.459439999999999 71.27841699999999 -1 1 0
95 0 7 1.575 5.381178 5.57944 69.158417 -1 0 0
56 0 8 -1.05 2.1643419999999987 2.3626039999999975 65.94158099999999 0 1 0
58 0 8 -1.05 2.2380129999999987 0.2426049999999993 68.06158199999999 0 1 0
65 0 8 -1.05 0.04434299999999958 4.4826049999999995 66.01525199999999 0 1 0
69 0 8 -1.05 2.2380129999999987 6.676275 66.01525199999999 0 0 0
53 0 8 -1.05 0.04434299999999958 2.4362749999999984 68.06158199999999 0 1 0
72 0 8 -1.05 4.358013 4.556274999999999 65.94158099999999 -1 0 0
64 0 8 -1.05 6.478013000000001 2.4362749999999984 66.01525199999999 -1 1 0
55 0 8 -1.05 0.11801299999999859 0.3162749999999974 65.94158099999999 0 1 0
70 0 8 -1.05 4.284343 6.676275 68.06158199999999 0 0 0
73 0 8 -1.05 6.404343000000001 6.6026050000000005 65.94158099999999 -1 0 0
60 0 8 -1.05 4.284343 0.2426049999999993 66.01525199999999 0 1 0
75 0 8 -1.05 6.478013000000001 4.4826049999999995 68.06158199999999 -1 1 0
74 0 7 1.575 6.441178000000001 4.5194399999999995 65.978417 -1 0 0
54 0 7 1.575 0.08117799999999864 2.3994399999999985 65.978417 0 1 0
71 0 6 1.05 4.321178 6.6394400000000005 65.978417 -1 0 0
57 0 7 1.575 2.2011779999999987 0.27943999999999747 65.978417 0 1 0
76 0 7 1.575 7.501178 7.69944 67.038417 -1 0 0
62 0 7 1.575 5.381178 1.3394399999999997 64.91841699999998 -1 1 0
67 0 7 1.575 1.1411779999999991 5.57944 64.91841699999998 0 0 0
59 0 7 1.575 3.2611779999999992 3.459439999999999 67.038417 0 1 0
130 0 7 1.575 4.321178 0.27943999999999747 76.578417 -1 1 0
144 0 6 1.05 2.2011779999999987 6.6394400000000005 76.578417 0 0 0
136 0 7 1.575 6.441178000000001 2.3994399999999985 76.578417 -1 1 0
138 0 7 1.575 0.08117799999999864 4.5194399999999995 76.578417 0 0 0
143 0 8 -1.05 2.1643419999999987 4.556274999999999 76.615252 0 0 0
131 0 9 -0.975 4.358013 2.3626039999999975 76.615252 -1 1 0
139 0 9 -0.975 0.11801299999999859 6.6026050000000005 76.615252 0 0 0
134 0 8 -1.05 6.404343000000001 0.3162749999999974 76.615252 -1 1 0
102 0 8 -1.05 2.1643419999999987 2.3626039999999975 74.421581 0 1 0
127 0 8 -1.05 2.2380129999999987 0.2426049999999993 76.54158199999999 0 1 0
107 0 8 -1.05 4.284343 2.4362749999999984 72.30158199999998 0 1 0
119 0 8 -1.05 4.358013 6.6026050000000005 72.37525199999999 -1 0 0
111 0 8 -1.05 0.04434299999999958 4.4826049999999995 74.49525199999998 0 1 0
115 0 8 -1.05 2.2380129999999987 6.676275 74.49525199999998 0 0 0
125 0 9 -0.975 0.04434299999999958 2.4362749999999984 76.54158199999999 0 1 0
101 0 8 -1.05 2.1643419999999987 0.3162749999999974 72.37525199999999 0 1 0
109 0 8 -1.05 6.478013000000001 0.2426049999999993 72.30158199999998 -1 1 0
118 0 8 -1.05 4.358013 4.556274999999999 74.421581 -1 0 0
110 0 8 -1.05 6.478013000000001 2.4362749999999984 74.49525199999998 -1 1 0
120 0 8 -1.05 6.404343000000001 4.556274999999999 72.37525199999999 -1 0 0
114 0 8 -1.05 2.2380129999999987 4.4826049999999995 72.30158199999998 0 1 0
99 0 8 -1.05 0.11801299999999859 0.3162749999999974 74.421581 0 1 0
146 0 9 -0.975 4.284343 6.676275 76.54158199999999 0 0 0
121 0 8 -1.05 6.404343000000001 6.6026050000000005 74.421581 -1 0 0
106 0 8 -1.05 4.284343 0.2426049999999993 74.49525199999998 0 1 0
100 0 8 -1.05 0.11801299999999859 2.3626039999999975 72.37525199999999 0 1 0
112 0 8 -1.05 0.04434299999999958 6.676275 72.30158199999998 0 0 0
148 0 8 -1.05 6.478013000000001 4.4826049999999995 76.54158199999999 -1 1 0
97 0 7 1.575 0.08117799999999864 0.27943999999999747 72.33841699999998 0 1 0
116 0 6 1.05 4.321178 4.5194399999999995 72.33841699999998 -1 0 0
122 0 7 1.575 6.441178000000001 4.5194399999999995 74.458417 -1 0 0
98 0 7 1.575 0.08117799999999864 2.3994399999999985 74.458417 0 1 0
117 0 7 1.575 4.321178 6.6394400000000005 74.458417 -1 0 0
103 0 6 1.05 2.2011779999999987 0.27943999999999747 74.458417 0 1 0
104 0 7 1.575 2.2011779999999987 2.3994399999999985 72.33841699999998 0 1 0
123 0 6 1.05 6.441178000000001 6.6394400000000005 72.33841699999998 -1 0 0
124 0 7 1.575 7.501178 7.69944 75.51841699999999 -1 0 0
108 0 7 1.575 5.381178 1.3394399999999997 73.398417 -1 1 0
113 0 7 1.575 1.1411779999999991 5.57944 73.398417 0 0 0
105 0 7 1.575 3.2611779999999992 3.459439999999999 75.51841699999999 0 1 0
135 0 3 -0.804 6.440761 2.3990229999999997 78.467417 -1 1 0
129 0 3 -0.804 4.320761 0.2790229999999987 78.467417 -1 1 0
126 0 10 0.425 0.8827609999999995 1.4810230000000004 77.060417 0 1 0
128 0 10 0.425 4.062761 3.881022999999999 77.060417 -1 1 0
145 0 3 -0.804 2.378 6.618 78.467417 0 0 0
140 0 3 -0.804 0.258 4.498 78.467417 0 0 0
147 0 10 0.425 5.3 5.7 77.060417 0 0 0
137 0 10 0.425 0 8.1 77.060417 0 0 0
132 0 1 0.731 5.380761 1.3390229999999992 79.167417 -1 1 0
133 0 2 -0.123 5.380761 1.3390229999999992 80.267417 -1 1 0
141 0 1 0.731 1.318 5.558 79.167417 0 0 0
142 0 2 -0.123 1.318 5.558 80.267417 0 0 0

Velocities

21 0 0 0
20 0 0 0
12 0 0 0
11 0 0 0
52 0 0 0
8 0 0 0
32 0 0 0
48 0 0 0
41 0 0 0
35 0 0 0
15 0 0 0
29 0 0 0
37 0 0 0
46 0 0 0
42 0 0 0
50 0 0 0
44 0 0 0
25 0 0 0
7 0 0 0
31 0 0 0
34 0 0 0
27 0 0 0
39 0 0 0
17 0 0 0
26 0 0 0
9 0 0 0
19 0 0 0
47 0 0 0
43 0 0 0
40 0 0 0
5 0 0 0
33 0 0 0
36 0 0 0
30 0 0 0
51 0 0 0
14 0 0 0
28 0 0 0
45 0 0 0
38 0 0 0
49 0 0 0
3 0 0 0
1 0 0 0
22 0 0 0
24 0 0 0
4 0 0 0
18 0 0 0
2 0 0 0
6 0 0 0
16 0 0 0
10 0 0 0
23 0 0 0
13 0 0 0
96 0 0 0
83 0 0 0
88 0 0 0
84 0 0 0
89 0 0 0
94 0 0 0
91 0 0 0
77 0 0 0
82 0 0 0
79 0 0 0
81 0 0 0
90 0 0 0
63 0 0 0
68 0 0 0
92 0 0 0
87 0 0 0
61 0 0 0
80 0 0 0
85 0 0 0
66 0 0 0
78 0 0 0
93 0 0 0
86 0 0 0
95 0 0 0
56 0 0 0
58 0 0 0
65 0 0 0
69 0 0 0
53 0 0 0
72 0 0 0
64 0 0 0
55 0 0 0
70 0 0 0
73 0 0 0
60 0 0 0
75 0 0 0
74 0 0 0
54 0 0 0
71 0 0 0
57 0 0 0
76 0 0 0
62 0 0 0
67 0 0 0
59 0 0 0
130 0 0 0
144 0 0 0
136 0 0 0
138 0 0 0
143 0 0 0
131 0 0 0
139 0 0 0
134 0 0 0
102 0 0 0
127 0 0 0
107 0 0 0
119 0 0 0
111 0 0 0
115 0 0 0
125 0 0 0
101 0 0 0
109 0 0 0
118 0 0 0
110 0 0 0
120 0 0 0
114 0 0 0
99 0 0 0
146 0 0 0
121 0 0 0
106 0 0 0
100 0 0 0
112 0 0 0
148 0 0 0
97 0 0 0
116 0 0 0
122 0 0 0
98 0 0 0
117 0 0 0
103 0 0 0
104 0 0 0
123 0 0 0
124 0 0 0
108 0 0 0
113 0 0 0
105 0 0 0
135 0 0 0
129 0 0 0
126 0 0 0
128 0 0 0
145 0 0 0
140 0 0 0
147 0 0 0
137 0 0 0
132 0 0 0
133 0 0 0
141 0 0 0
142 0 0 0

Bonds

1 1 21 20
2 2 21 4
3 2 21 18
4 1 12 11
5 2 12 16
6 2 12 10
7 5 15 13
8 5 7 6
9 5 1 2
10 5 22 23
11 5 131 128
12 5 139 137
13 5 125 126
14 5 146 147
15 1 132 133
16 2 132 135
17 2 132 129
18 1 141 142
19 2 141 145
20 2 141 140

Angles

1 5 4 21 18
2 2 20 21 18
3 2 20 21 4
4 5 16 12 10
5 2 11 12 10
6 2 11 12 16
7 5 135 132 129
8 2 133 132 129
9 2 133 132 135
10 5 145 141 140
11 2 142 141 140
12 2 142 141 145

Impropers

1 2 4 20 21 18
2 2 16 11 12 10
3 2 135 133 132 129
4 2 145 142 141 140
