LAMMPS data file via write_data, version 21 Nov 2023, timestep = 6189340, units = real

1710 atoms
10 atom types
72 bonds
6 bond types
108 angles
6 angle types
0 dihedrals
2 dihedral types
18 impropers
2 improper types

0 25.44 xlo xhi
0 25.44 ylo yhi
27.449417 100.267417 zlo zhi

Masses

1 12.011
2 1.008
3 15.9994
4 15.9994
5 1.008
6 55.845
7 55.845
8 15.9994
9 15.9994
10 1.008

Pair Coeffs # lj/cut/coul/long

1 0.0988 3.31521
2 0.0161 2.4473
3 0.1463 3.04812
4 0.093 3.24287
5 0.0047 0.537925
6 9.0298e-07 4.9062
7 9.0298e-07 4.9062
8 0.1554 3.16554
9 0.1554 3.16554
10 0 0

Bond Coeffs # harmonic

1 361.8 1.105
2 652.57 1.218
3 383.13 1.351
4 563.51 0.973
5 554.135 1
6 0 2.08

Angle Coeffs # harmonic

1 51.617 106.55
2 65.93 123.65
3 65.262 109.49
4 115.745 122.1
5 118.817 130.25
6 30 109.47

Dihedral Coeffs # fourier

1 1 2.3 2 180
2 2 2.3 2 180 1.9 1 0

Improper Coeffs # cvff

1 10.5 -1 2
2 10.5 -1 2

Atoms # full

14 0 1 0.731 1.2075314311833216 5.678385623564145 48.657269172955694 0 0 0
13 0 2 -0.123 1.3161454332380045 5.5578460763274515 47.569693605211086 0 0 0
11 0 3 -0.804 0.3819605039845245 4.993470786217563 49.24740350255186 0 0 0
204 0 1 0.731 11.772266007378263 7.592399924064327 48.58639909366818 0 0 0
203 0 2 -0.123 11.79120019402619 7.528674285598554 47.487646147365034 0 0 0
201 0 3 -0.804 10.937074165136758 6.899052329704248 49.1852833693302 0 0 0
3 0 3 -0.804 1.9098411206428654 6.501857093612563 49.23637864576815 0 0 0
193 0 3 -0.804 12.57272488294539 8.35713921031677 49.13070905095484 0 0 0
784 0 8 -1.05 10.895252000000001 10.895252000000001 53.295252000000005 0 0 0
780 0 8 -1.05 8.775252 10.821582000000001 55.415251999999995 0 0 0
782 0 8 -1.05 10.821582000000001 8.775252 55.415251999999995 0 0 0
779 2 6 1.05 8.738417 8.738417 55.378417 0 0 0
783 2 7 1.575 10.858417000000001 10.858417000000001 55.378417 0 0 0
781 1 7 1.575 9.798417 9.798417 52.198417 0 0 0
24 0 8 -1.05 2.415252 2.415252 53.295252000000005 0 0 0
10 0 8 -1.05 2.3415820000000003 4.535251999999999 51.175252 0 0 0
20 0 8 -1.05 0.295252 2.3415820000000003 55.415251999999995 0 0 0
27 0 8 -1.05 4.535251999999999 0.295252 53.221582 0 0 0
35 0 8 -1.05 2.3415820000000003 6.581580999999999 53.221582 0 0 0
5 0 8 -1.05 4.535251999999999 2.3415820000000003 51.175252 0 0 0
43 0 8 -1.05 6.581580999999999 4.535251999999999 55.415251999999995 0 0 0
37 0 8 -1.05 2.415252 4.461582 55.341581999999995 0 0 0
28 0 8 -1.05 6.581580999999999 2.3415820000000003 53.221582 0 0 0
22 0 8 -1.05 2.3415820000000003 0.295252 55.415251999999995 0 0 0
39 0 8 -1.05 4.461582 4.461582 53.295252000000005 0 0 0
9 0 9 -1 0.3764316504680075 6.518153355228208 51.407899100338625 0 0 0
45 0 8 -1.05 6.655251999999999 6.655251999999999 53.295252000000005 0 0 0
34 0 8 -1.05 0.295252 4.535251999999999 53.221582 0 0 0
41 0 8 -1.05 4.535251999999999 6.581580999999999 55.415251999999995 0 0 0
25 0 8 -1.05 4.461582 2.415252 55.341581999999995 0 0 0
6 0 8 -1.05 6.581580999999999 0.295252 51.175252 0 0 0
40 2 7 1.575 4.498416999999999 4.498416999999999 55.378417 0 0 0
12 2 7 1.575 2.3784170000000002 6.618416999999999 51.138417000000004 0 0 0
7 2 7 1.575 6.618416999999999 2.3784170000000002 51.138417000000004 0 0 0
19 2 7 1.575 0.258417 0.258417 55.378417 0 0 0
29 2 7 1.575 6.618416999999999 0.258417 53.258416999999994 0 0 0
26 2 7 1.575 4.498416999999999 2.3784170000000002 53.258416999999994 0 0 0
8 2 7 1.575 0.258417 4.498416999999999 51.138417000000004 0 0 0
33 2 7 1.575 0.258417 6.618416999999999 53.258416999999994 0 0 0
36 2 7 1.575 2.3784170000000002 4.498416999999999 53.258416999999994 0 0 0
44 2 7 1.575 6.618416999999999 6.618416999999999 55.378417 0 0 0
23 2 6 1.05 2.3784170000000002 2.3784170000000002 55.378417 0 0 0
4 2 7 1.575 4.498416999999999 0.258417 51.138417000000004 0 0 0
42 1 7 1.575 5.5584169999999995 5.5584169999999995 52.198417 0 0 0
31 1 7 1.575 7.678417 3.4384170000000003 54.318417 0 0 0
63 1 7 1.575 1.3184170000000002 5.5584169999999995 56.438416999999994 0 0 0
38 1 7 1.575 3.4384170000000003 7.678417 54.318417 0 0 0
56 1 7 1.575 5.5584169999999995 1.3184170000000002 56.438416999999994 0 0 0
21 1 7 1.575 1.3184170000000002 1.3184170000000002 52.198417 0 0 0
16 0 8 -1.05 6.655251999999999 4.461582 51.101582 0 0 0
15 0 8 -1.05 4.461582 6.655251999999999 51.101582 0 0 0
1170 0 8 -1.05 6.655251999999999 0.2215820000000015 55.341581999999995 0 1 0
1142 0 8 -1.05 2.415252 0.2215820000000015 51.101582 0 1 0
207 0 10 0.425 8.321269115862657 7.067768453672272 50.67930779533679 0 0 0
412 0 8 -1.05 0.2215820000000015 6.655251999999999 55.341581999999995 1 0 0
381 0 8 -1.05 0.2215820000000015 2.415252 51.101582 1 0 0
1538 0 8 -1.05 0.2215820000000015 0.2215820000000015 53.295252000000005 1 1 0
32 0 8 -1.05 8.701582 6.655251999999999 55.341581999999995 0 0 0
1 0 8 -1.05 8.701582 2.415252 51.101582 0 0 0
1158 0 8 -1.05 8.701582 0.2215820000000015 53.295252000000005 0 1 0
214 0 8 -1.05 10.895252000000001 2.415252 53.295252000000005 0 0 0
200 0 8 -1.05 10.821582000000001 4.535251999999999 51.175252 0 0 0
210 0 8 -1.05 8.775252 2.3415820000000003 55.415251999999995 0 0 0
225 0 8 -1.05 10.821582000000001 6.581580999999999 53.221582 0 0 0
227 0 8 -1.05 10.895252000000001 4.461582 55.341581999999995 0 0 0
212 0 8 -1.05 10.821582000000001 0.295252 55.415251999999995 0 0 0
199 0 9 -1 8.85358693773569 6.456968093188729 51.34201293418359 0 0 0
224 0 8 -1.05 8.775252 4.535251999999999 53.221582 0 0 0
202 2 7 1.575 10.858417000000001 6.618416999999999 51.138417000000004 0 0 0
209 2 7 1.575 8.738417 0.258417 55.378417 0 0 0
198 2 7 1.575 8.738417 4.498416999999999 51.138417000000004 0 0 0
223 2 7 1.575 8.738417 6.618416999999999 53.258416999999994 0 0 0
226 2 7 1.575 10.858417000000001 4.498416999999999 53.258416999999994 0 0 0
213 2 6 1.05 10.858417000000001 2.3784170000000002 55.378417 0 0 0
253 1 7 1.575 9.798417 5.5584169999999995 56.438416999999994 0 0 0
228 1 7 1.575 11.918417000000002 7.678417 54.318417 0 0 0
211 1 7 1.575 9.798417 1.3184170000000002 52.198417 0 0 0
1332 0 8 -1.05 10.895252000000001 0.2215820000000015 51.101582 0 1 0
30 0 8 -1.05 6.655251999999999 8.701582 55.341581999999995 0 0 0
2 0 8 -1.05 2.415252 8.701582 51.101582 0 0 0
594 0 8 -1.05 2.415252 10.895252000000001 53.295252000000005 0 0 0
590 0 8 -1.05 0.295252 10.821582000000001 55.415251999999995 0 0 0
597 0 8 -1.05 4.535251999999999 8.775252 53.221582 0 0 0
575 0 8 -1.05 4.535251999999999 10.821582000000001 51.175252 0 0 0
598 0 8 -1.05 6.581580999999999 10.821582000000001 53.221582 0 0 0
592 0 8 -1.05 2.3415820000000003 8.775252 55.415251999999995 0 0 0
595 0 8 -1.05 4.461582 10.895252000000001 55.341581999999995 0 0 0
576 0 8 -1.05 6.581580999999999 8.775252 51.175252 0 0 0
577 2 7 1.575 6.618416999999999 10.858417000000001 51.138417000000004 0 0 0
589 2 7 1.575 0.258417 8.738417 55.378417 0 0 0
599 2 7 1.575 6.618416999999999 8.738417 53.258416999999994 0 0 0
596 2 7 1.575 4.498416999999999 10.858417000000001 53.258416999999994 0 0 0
593 2 6 1.05 2.3784170000000002 10.858417000000001 55.378417 0 0 0
574 2 7 1.575 4.498416999999999 8.738417 51.138417000000004 0 0 0
601 1 7 1.575 7.678417 11.918417000000002 54.318417 0 0 0
626 1 7 1.575 5.5584169999999995 9.798417 56.438416999999994 0 0 0
591 1 7 1.575 1.3184170000000002 9.798417 52.198417 0 0 0
398 0 8 -1.05 0.2215820000000015 8.701582 53.295252000000005 1 0 0
951 0 8 -1.05 0.2215820000000015 10.895252000000001 51.101582 1 0 0
18 0 8 -1.05 8.701582 8.701582 53.295252000000005 0 0 0
571 0 8 -1.05 8.701582 10.895252000000001 51.101582 0 0 0
192 0 8 -1.05 10.895252000000001 8.701582 51.101582 0 0 0
78 0 8 -1.05 2.415252 2.415252 61.775251999999995 0 0 0
64 0 8 -1.05 2.3415820000000003 4.535251999999999 59.655252 0 0 0
81 0 8 -1.05 4.535251999999999 0.295252 61.701581999999995 0 0 0
89 0 8 -1.05 2.3415820000000003 6.581580999999999 61.701581999999995 0 0 0
55 0 8 -1.05 4.535251999999999 2.3415820000000003 59.655252 0 0 0
91 0 8 -1.05 2.415252 4.461582 63.82158199999999 0 0 0
82 0 8 -1.05 6.581580999999999 2.3415820000000003 61.701581999999995 0 0 0
93 0 8 -1.05 4.461582 4.461582 61.775251999999995 0 0 0
62 0 8 -1.05 0.295252 6.581580999999999 59.655252 0 0 0
97 0 8 -1.05 6.655251999999999 6.655251999999999 61.775251999999995 0 0 0
88 0 8 -1.05 0.295252 4.535251999999999 61.701581999999995 0 0 0
79 0 8 -1.05 4.461582 2.415252 63.82158199999999 0 0 0
57 0 8 -1.05 6.581580999999999 0.295252 59.655252 0 0 0
65 2 6 1.05 2.3784170000000002 6.618416999999999 59.618416999999994 0 0 0
58 2 7 1.575 6.618416999999999 2.3784170000000002 59.618416999999994 0 0 0
83 2 6 1.05 6.618416999999999 0.258417 61.73841699999999 0 0 0
80 2 6 1.05 4.498416999999999 2.3784170000000002 61.73841699999999 0 0 0
61 2 7 1.575 0.258417 4.498416999999999 59.618416999999994 0 0 0
87 2 7 1.575 0.258417 6.618416999999999 61.73841699999999 0 0 0
90 2 6 1.05 2.3784170000000002 4.498416999999999 61.73841699999999 0 0 0
54 2 7 1.575 4.498416999999999 0.258417 59.618416999999994 0 0 0
95 1 7 1.575 5.5584169999999995 5.5584169999999995 60.678416999999996 0 0 0
85 1 7 1.575 7.678417 3.4384170000000003 62.798417 0 0 0
92 1 7 1.575 3.4384170000000003 7.678417 62.798417 0 0 0
76 1 7 1.575 1.3184170000000002 1.3184170000000002 60.678416999999996 0 0 0
70 0 8 -1.05 6.581580999999999 6.581580999999999 57.461580999999995 0 0 0
72 0 8 -1.05 6.655251999999999 4.461582 59.581582000000004 0 0 0
59 0 8 -1.05 6.655251999999999 2.415252 57.535252 0 0 0
67 0 8 -1.05 4.461582 6.655251999999999 59.581582000000004 0 0 0
48 0 8 -1.05 0.295252 0.295252 57.461580999999995 0 0 0
66 0 8 -1.05 2.415252 6.655251999999999 57.535252 0 0 0
69 0 8 -1.05 4.535251999999999 4.535251999999999 57.461580999999995 0 0 0
49 0 8 -1.05 2.3415820000000003 2.3415820000000003 57.461580999999995 0 0 0
50 2 6 1.05 2.3784170000000002 0.258417 57.498416999999996 0 0 0
68 2 6 1.05 4.498416999999999 6.618416999999999 57.498416999999996 0 0 0
47 2 7 1.575 0.258417 2.3784170000000002 57.498416999999996 0 0 0
71 2 6 1.05 6.618416999999999 4.498416999999999 57.498416999999996 0 0 0
52 1 7 1.575 3.4384170000000003 3.4384170000000003 58.558417000000006 0 0 0
73 1 7 1.575 7.678417 7.678417 58.558417000000006 0 0 0
1224 0 8 -1.05 6.655251999999999 0.2215820000000015 63.82158199999999 0 1 0
1193 0 8 -1.05 4.461582 0.2215820000000015 57.535252 0 1 0
1191 0 8 -1.05 2.415252 0.2215820000000015 59.581582000000004 0 1 0
466 0 8 -1.05 0.2215820000000015 6.655251999999999 63.82158199999999 1 0 0
426 0 8 -1.05 0.2215820000000015 2.415252 59.581582000000004 1 0 0
440 0 8 -1.05 0.2215820000000015 4.461582 57.535252 1 0 0
1594 0 8 -1.05 0.2215820000000015 0.2215820000000015 61.775251999999995 1 1 0
86 0 8 -1.05 8.701582 6.655251999999999 63.82158199999999 0 0 0
46 0 8 -1.05 8.701582 2.415252 59.581582000000004 0 0 0
60 0 8 -1.05 8.701582 4.461582 57.535252 0 0 0
1214 0 8 -1.05 8.701582 0.2215820000000015 61.775251999999995 0 1 0
268 0 8 -1.05 10.895252000000001 2.415252 61.775251999999995 0 0 0
254 0 8 -1.05 10.821582000000001 4.535251999999999 59.655252 0 0 0
279 0 8 -1.05 10.821582000000001 6.581580999999999 61.701581999999995 0 0 0
281 0 8 -1.05 10.895252000000001 4.461582 63.82158199999999 0 0 0
252 0 8 -1.05 8.775252 6.581580999999999 59.655252 0 0 0
278 0 8 -1.05 8.775252 4.535251999999999 61.701581999999995 0 0 0
255 2 6 1.05 10.858417000000001 6.618416999999999 59.618416999999994 0 0 0
251 2 7 1.575 8.738417 4.498416999999999 59.618416999999994 0 0 0
277 2 6 1.05 8.738417 6.618416999999999 61.73841699999999 0 0 0
280 2 7 1.575 10.858417000000001 4.498416999999999 61.73841699999999 0 0 0
282 1 7 1.575 11.918417000000002 7.678417 62.798417 0 0 0
266 1 7 1.575 9.798417 1.3184170000000002 60.678416999999996 0 0 0
238 0 8 -1.05 8.775252 0.295252 57.461580999999995 0 0 0
256 0 8 -1.05 10.895252000000001 6.655251999999999 57.535252 0 0 0
239 0 8 -1.05 10.821582000000001 2.3415820000000003 57.461580999999995 0 0 0
240 2 7 1.575 10.858417000000001 0.258417 57.498416999999996 0 0 0
237 2 6 1.05 8.738417 2.3784170000000002 57.498416999999996 0 0 0
242 1 7 1.575 11.918417000000002 3.4384170000000003 58.558417000000006 0 0 0
1381 0 8 -1.05 10.895252000000001 0.2215820000000015 59.581582000000004 0 1 0
84 0 8 -1.05 6.655251999999999 8.701582 63.82158199999999 0 0 0
53 0 8 -1.05 4.461582 8.701582 57.535252 0 0 0
51 0 8 -1.05 2.415252 8.701582 59.581582000000004 0 0 0
648 0 8 -1.05 2.415252 10.895252000000001 61.775251999999995 0 0 0
651 0 8 -1.05 4.535251999999999 8.775252 61.701581999999995 0 0 0
625 0 8 -1.05 4.535251999999999 10.821582000000001 59.655252 0 0 0
652 0 8 -1.05 6.581580999999999 10.821582000000001 61.701581999999995 0 0 0
649 0 8 -1.05 4.461582 10.895252000000001 63.82158199999999 0 0 0
627 0 8 -1.05 6.581580999999999 8.775252 59.655252 0 0 0
628 2 7 1.575 6.618416999999999 10.858417000000001 59.618416999999994 0 0 0
653 2 6 1.05 6.618416999999999 8.738417 61.73841699999999 0 0 0
650 2 6 1.05 4.498416999999999 10.858417000000001 61.73841699999999 0 0 0
624 2 7 1.575 4.498416999999999 8.738417 59.618416999999994 0 0 0
655 1 7 1.575 7.678417 11.918417000000002 62.798417 0 0 0
646 1 7 1.575 1.3184170000000002 9.798417 60.678416999999996 0 0 0
629 0 8 -1.05 6.655251999999999 10.895252000000001 57.535252 0 0 0
618 0 8 -1.05 0.295252 8.775252 57.461580999999995 0 0 0
619 0 8 -1.05 2.3415820000000003 10.821582000000001 57.461580999999995 0 0 0
620 2 7 1.575 2.3784170000000002 8.738417 57.498416999999996 0 0 0
617 2 6 1.05 0.258417 10.858417000000001 57.498416999999996 0 0 0
622 1 7 1.575 3.4384170000000003 11.918417000000002 58.558417000000006 0 0 0
454 0 8 -1.05 0.2215820000000015 8.701582 61.775251999999995 1 0 0
996 0 8 -1.05 0.2215820000000015 10.895252000000001 59.581582000000004 1 0 0
74 0 8 -1.05 8.701582 8.701582 61.775251999999995 0 0 0
616 0 8 -1.05 8.701582 10.895252000000001 59.581582000000004 0 0 0
241 0 8 -1.05 10.895252000000001 8.701582 59.581582000000004 0 0 0
838 0 8 -1.05 10.895252000000001 10.895252000000001 61.775251999999995 0 0 0
836 1 7 1.575 9.798417 9.798417 60.678416999999996 0 0 0
808 0 8 -1.05 8.775252 8.775252 57.461580999999995 0 0 0
809 0 8 -1.05 10.821582000000001 10.821582000000001 57.461580999999995 0 0 0
810 2 7 1.575 10.858417000000001 8.738417 57.498416999999996 0 0 0
807 2 6 1.05 8.738417 10.858417000000001 57.498416999999996 0 0 0
812 1 7 1.575 11.918417000000002 11.918417000000002 58.558417000000006 0 0 0
94 2 7 1.575 4.498416999999999 4.498416999999999 63.858416999999996 0 0 0
75 2 6 1.05 0.258417 0.258417 63.858416999999996 0 0 0
96 2 7 1.575 6.618416999999999 6.618416999999999 63.858416999999996 0 0 0
77 2 7 1.575 2.3784170000000002 2.3784170000000002 63.858416999999996 0 0 0
265 2 7 1.575 8.738417 0.258417 63.858416999999996 0 0 0
267 2 6 1.05 10.858417000000001 2.3784170000000002 63.858416999999996 0 0 0
645 2 6 1.05 0.258417 8.738417 63.858416999999996 0 0 0
647 2 7 1.575 2.3784170000000002 10.858417000000001 63.858416999999996 0 0 0
835 2 7 1.575 8.738417 8.738417 63.858416999999996 0 0 0
837 2 6 1.05 10.858417000000001 10.858417000000001 63.858416999999996 0 0 0
100 0 8 -1.05 0.295252 2.3415820000000003 63.89525199999999 0 0 0
114 0 8 -1.05 6.581580999999999 4.535251999999999 63.89525199999999 0 0 0
101 0 8 -1.05 2.3415820000000003 0.295252 63.89525199999999 0 0 0
113 0 8 -1.05 4.535251999999999 6.581580999999999 63.89525199999999 0 0 0
122 0 8 -1.05 2.415252 2.415252 70.25525199999998 0 0 0
136 0 8 -1.05 2.3415820000000003 4.535251999999999 68.135252 0 0 0
125 0 8 -1.05 4.535251999999999 0.295252 70.18158199999998 0 0 0
137 0 8 -1.05 2.3415820000000003 6.581580999999999 70.18158199999998 0 0 0
126 0 8 -1.05 4.535251999999999 2.3415820000000003 68.135252 0 0 0
128 0 8 -1.05 6.581580999999999 2.3415820000000003 70.18158199999998 0 0 0
141 0 8 -1.05 4.461582 4.461582 70.25525199999998 0 0 0
135 0 8 -1.05 0.295252 6.581580999999999 68.135252 0 0 0
145 0 8 -1.05 6.655251999999999 6.655251999999999 70.25525199999998 0 0 0
134 0 8 -1.05 0.295252 4.535251999999999 70.18158199999998 0 0 0
127 0 8 -1.05 6.581580999999999 0.295252 68.135252 0 0 0
139 2 7 1.575 2.3784170000000002 6.618416999999999 68.09841699999998 0 0 0
130 2 7 1.575 6.618416999999999 2.3784170000000002 68.09841699999998 0 0 0
129 2 6 1.05 6.618416999999999 0.258417 70.21841699999999 0 0 0
124 2 7 1.575 4.498416999999999 2.3784170000000002 70.21841699999999 0 0 0
132 2 7 1.575 0.258417 4.498416999999999 68.09841699999998 0 0 0
133 2 6 1.05 0.258417 6.618416999999999 70.21841699999999 0 0 0
138 2 6 1.05 2.3784170000000002 4.498416999999999 70.21841699999999 0 0 0
123 2 6 1.05 4.498416999999999 0.258417 68.09841699999998 0 0 0
143 1 7 1.575 5.5584169999999995 5.5584169999999995 69.158417 0 0 0
120 1 7 1.575 1.3184170000000002 1.3184170000000002 69.158417 0 0 0
115 0 8 -1.05 6.581580999999999 6.581580999999999 65.94158099999999 0 0 0
144 0 8 -1.05 6.655251999999999 4.461582 68.06158199999999 0 0 0
107 0 8 -1.05 6.655251999999999 2.415252 66.01525199999999 0 0 0
142 0 8 -1.05 4.461582 6.655251999999999 68.06158199999999 0 0 0
99 0 8 -1.05 0.295252 0.295252 65.94158099999999 0 0 0
110 0 8 -1.05 2.415252 6.655251999999999 66.01525199999999 0 0 0
112 0 8 -1.05 4.535251999999999 4.535251999999999 65.94158099999999 0 0 0
102 0 8 -1.05 2.3415820000000003 2.3415820000000003 65.94158099999999 0 0 0
103 2 7 1.575 2.3784170000000002 0.258417 65.978417 0 0 0
111 2 6 1.05 4.498416999999999 6.618416999999999 65.978417 0 0 0
98 2 6 1.05 0.258417 2.3784170000000002 65.978417 0 0 0
116 2 6 1.05 6.618416999999999 4.498416999999999 65.978417 0 0 0
104 1 7 1.575 3.4384170000000003 3.4384170000000003 67.038417 0 0 0
109 1 7 1.575 1.3184170000000002 5.5584169999999995 64.91841699999998 0 0 0
106 1 7 1.575 5.5584169999999995 1.3184170000000002 64.91841699999998 0 0 0
117 1 7 1.575 7.678417 7.678417 67.038417 0 0 0
1245 0 8 -1.05 4.461582 0.2215820000000015 66.01525199999999 0 1 0
1261 0 8 -1.05 2.415252 0.2215820000000015 68.06158199999999 0 1 0
499 0 8 -1.05 0.2215820000000015 2.415252 68.06158199999999 1 0 0
488 0 8 -1.05 0.2215820000000015 4.461582 66.01525199999999 1 0 0
1638 0 8 -1.05 0.2215820000000015 0.2215820000000015 70.25525199999998 1 1 0
119 0 8 -1.05 8.701582 2.415252 68.06158199999999 0 0 0
108 0 8 -1.05 8.701582 4.461582 66.01525199999999 0 0 0
1258 0 8 -1.05 8.701582 0.2215820000000015 70.25525199999998 0 1 0
290 0 8 -1.05 8.775252 2.3415820000000003 63.89525199999999 0 0 0
291 0 8 -1.05 10.821582000000001 0.295252 63.89525199999999 0 0 0
312 0 8 -1.05 10.895252000000001 2.415252 70.25525199999998 0 0 0
326 0 8 -1.05 10.821582000000001 4.535251999999999 68.135252 0 0 0
327 0 8 -1.05 10.821582000000001 6.581580999999999 70.18158199999998 0 0 0
325 0 8 -1.05 8.775252 6.581580999999999 68.135252 0 0 0
324 0 8 -1.05 8.775252 4.535251999999999 70.18158199999998 0 0 0
329 2 7 1.575 10.858417000000001 6.618416999999999 68.09841699999998 0 0 0
322 2 7 1.575 8.738417 4.498416999999999 68.09841699999998 0 0 0
323 2 6 1.05 8.738417 6.618416999999999 70.21841699999999 0 0 0
328 2 6 1.05 10.858417000000001 4.498416999999999 70.21841699999999 0 0 0
310 1 7 1.575 9.798417 1.3184170000000002 69.158417 0 0 0
289 0 8 -1.05 8.775252 0.295252 65.94158099999999 0 0 0
300 0 8 -1.05 10.895252000000001 6.655251999999999 66.01525199999999 0 0 0
292 0 8 -1.05 10.821582000000001 2.3415820000000003 65.94158099999999 0 0 0
293 2 7 1.575 10.858417000000001 0.258417 65.978417 0 0 0
288 2 6 1.05 8.738417 2.3784170000000002 65.978417 0 0 0
294 1 7 1.575 11.918417000000002 3.4384170000000003 67.038417 0 0 0
299 1 7 1.575 9.798417 5.5584169999999995 64.91841699999998 0 0 0
1451 0 8 -1.05 10.895252000000001 0.2215820000000015 68.06158199999999 0 1 0
105 0 8 -1.05 4.461582 8.701582 66.01525199999999 0 0 0
121 0 8 -1.05 2.415252 8.701582 68.06158199999999 0 0 0
670 0 8 -1.05 0.295252 10.821582000000001 63.89525199999999 0 0 0
671 0 8 -1.05 2.3415820000000003 8.775252 63.89525199999999 0 0 0
692 0 8 -1.05 2.415252 10.895252000000001 70.25525199999998 0 0 0
695 0 8 -1.05 4.535251999999999 8.775252 70.18158199999998 0 0 0
696 0 8 -1.05 4.535251999999999 10.821582000000001 68.135252 0 0 0
698 0 8 -1.05 6.581580999999999 10.821582000000001 70.18158199999998 0 0 0
697 0 8 -1.05 6.581580999999999 8.775252 68.135252 0 0 0
700 2 6 1.05 6.618416999999999 10.858417000000001 68.09841699999998 0 0 0
699 2 6 1.05 6.618416999999999 8.738417 70.21841699999999 0 0 0
694 2 7 1.575 4.498416999999999 10.858417000000001 70.21841699999999 0 0 0
693 2 7 1.575 4.498416999999999 8.738417 68.09841699999998 0 0 0
690 1 7 1.575 1.3184170000000002 9.798417 69.158417 0 0 0
677 0 8 -1.05 6.655251999999999 10.895252000000001 66.01525199999999 0 0 0
669 0 8 -1.05 0.295252 8.775252 65.94158099999999 0 0 0
672 0 8 -1.05 2.3415820000000003 10.821582000000001 65.94158099999999 0 0 0
673 2 6 1.05 2.3784170000000002 8.738417 65.978417 0 0 0
668 2 7 1.575 0.258417 10.858417000000001 65.978417 0 0 0
674 1 7 1.575 3.4384170000000003 11.918417000000002 67.038417 0 0 0
676 1 7 1.575 5.5584169999999995 9.798417 64.91841699999998 0 0 0
498 0 8 -1.05 0.2215820000000015 8.701582 70.25525199999998 1 0 0
1069 0 8 -1.05 0.2215820000000015 10.895252000000001 68.06158199999999 1 0 0
118 0 8 -1.05 8.701582 8.701582 70.25525199999998 0 0 0
689 0 8 -1.05 8.701582 10.895252000000001 68.06158199999999 0 0 0
311 0 8 -1.05 10.895252000000001 8.701582 68.06158199999999 0 0 0
860 0 8 -1.05 8.775252 10.821582000000001 63.89525199999999 0 0 0
861 0 8 -1.05 10.821582000000001 8.775252 63.89525199999999 0 0 0
882 0 8 -1.05 10.895252000000001 10.895252000000001 70.25525199999998 0 0 0
880 1 7 1.575 9.798417 9.798417 69.158417 0 0 0
859 0 8 -1.05 8.775252 8.775252 65.94158099999999 0 0 0
862 0 8 -1.05 10.821582000000001 10.821582000000001 65.94158099999999 0 0 0
863 2 6 1.05 10.858417000000001 8.738417 65.978417 0 0 0
858 2 7 1.575 8.738417 10.858417000000001 65.978417 0 0 0
864 1 7 1.575 11.918417000000002 11.918417000000002 67.038417 0 0 0
131 1 7 1.575 7.678417 3.4384170000000003 71.27841699999999 0 0 0
140 1 7 1.575 3.4384170000000003 7.678417 71.27841699999999 0 0 0
181 2 7 1.575 0.258417 4.498416999999999 76.578417 0 0 0
179 2 7 1.575 6.618416999999999 2.3784170000000002 76.578417 0 0 0
187 2 7 1.575 2.3784170000000002 6.618416999999999 76.578417 0 0 0
176 2 7 1.575 4.498416999999999 0.258417 76.578417 0 0 0
178 0 8 -1.05 6.581580999999999 0.295252 76.615252 0 0 0
182 0 8 -1.05 0.295252 6.581580999999999 76.615252 0 0 0
177 0 8 -1.05 4.535251999999999 2.3415820000000003 76.615252 0 0 0
185 0 8 -1.05 2.3415820000000003 4.535251999999999 76.615252 0 0 0
170 0 8 -1.05 6.581580999999999 6.581580999999999 74.421581 0 0 0
190 0 8 -1.05 6.655251999999999 4.461582 76.54158199999999 0 0 0
149 0 8 -1.05 0.295252 2.3415820000000003 72.37525199999999 0 0 0
159 0 8 -1.05 6.655251999999999 2.415252 74.49525199999998 0 0 0
188 0 9 -1 4.380094573243469 6.784452574497985 76.37379061726466 0 0 0
169 0 8 -1.05 6.581580999999999 4.535251999999999 72.37525199999999 0 0 0
163 0 8 -1.05 2.415252 4.461582 72.30158199999998 0 0 0
148 0 8 -1.05 0.295252 0.295252 74.421581 0 0 0
164 0 8 -1.05 2.415252 6.655251999999999 74.49525199999998 0 0 0
150 0 8 -1.05 2.3415820000000003 0.295252 72.37525199999999 0 0 0
167 0 8 -1.05 4.535251999999999 4.535251999999999 74.421581 0 0 0
151 0 8 -1.05 2.3415820000000003 2.3415820000000003 74.421581 0 0 0
168 0 8 -1.05 4.535251999999999 6.581580999999999 72.37525199999999 0 0 0
156 0 8 -1.05 4.461582 2.415252 72.30158199999998 0 0 0
165 2 6 1.05 4.498416999999999 4.498416999999999 72.33841699999998 0 0 0
146 2 6 1.05 0.258417 0.258417 72.33841699999998 0 0 0
152 2 7 1.575 2.3784170000000002 0.258417 74.458417 0 0 0
166 2 7 1.575 4.498416999999999 6.618416999999999 74.458417 0 0 0
147 2 7 1.575 0.258417 2.3784170000000002 74.458417 0 0 0
171 2 7 1.575 6.618416999999999 4.498416999999999 74.458417 0 0 0
172 2 7 1.575 6.618416999999999 6.618416999999999 72.33841699999998 0 0 0
153 2 7 1.575 2.3784170000000002 2.3784170000000002 72.33841699999998 0 0 0
154 1 7 1.575 3.4384170000000003 3.4384170000000003 75.51841699999999 0 0 0
162 1 7 1.575 1.3184170000000002 5.5584169999999995 73.398417 0 0 0
157 1 7 1.575 5.5584169999999995 1.3184170000000002 73.398417 0 0 0
173 1 7 1.575 7.678417 7.678417 75.51841699999999 0 0 0
189 0 10 0.425 4.931485969756196 6.176131285042875 77.02788038700758 0 0 0
1295 0 8 -1.05 4.461582 0.2215820000000015 74.49525199999998 0 1 0
1298 0 8 -1.05 6.655251999999999 0.2215820000000015 72.30158199999998 0 1 0
1315 0 8 -1.05 2.415252 0.2215820000000015 76.54158199999999 0 1 0
541 0 8 -1.05 0.2215820000000015 6.655251999999999 72.30158199999998 1 0 0
554 0 8 -1.05 0.2215820000000015 2.415252 76.54158199999999 1 0 0
540 0 8 -1.05 0.2215820000000015 4.461582 74.49525199999998 1 0 0
161 0 8 -1.05 8.701582 6.655251999999999 72.30158199999998 0 0 0
174 0 8 -1.05 8.701582 2.415252 76.54158199999999 0 0 0
160 0 8 -1.05 8.701582 4.461582 74.49525199999998 0 0 0
330 1 7 1.575 11.918417000000002 7.678417 71.27841699999999 0 0 0
371 2 7 1.575 8.738417 4.498416999999999 76.578417 0 0 0
377 2 7 1.575 10.858417000000001 6.618416999999999 76.578417 0 0 0
372 0 8 -1.05 8.775252 6.581580999999999 76.615252 0 0 0
375 0 8 -1.05 10.821582000000001 4.535251999999999 76.615252 0 0 0
339 0 8 -1.05 8.775252 2.3415820000000003 72.37525199999999 0 0 0
353 0 8 -1.05 10.895252000000001 4.461582 72.30158199999998 0 0 0
338 0 8 -1.05 8.775252 0.295252 74.421581 0 0 0
354 0 8 -1.05 10.895252000000001 6.655251999999999 74.49525199999998 0 0 0
340 0 8 -1.05 10.821582000000001 0.295252 72.37525199999999 0 0 0
341 0 8 -1.05 10.821582000000001 2.3415820000000003 74.421581 0 0 0
336 2 6 1.05 8.738417 0.258417 72.33841699999998 0 0 0
342 2 7 1.575 10.858417000000001 0.258417 74.458417 0 0 0
337 2 7 1.575 8.738417 2.3784170000000002 74.458417 0 0 0
343 2 7 1.575 10.858417000000001 2.3784170000000002 72.33841699999998 0 0 0
344 1 7 1.575 11.918417000000002 3.4384170000000003 75.51841699999999 0 0 0
352 1 7 1.575 9.798417 5.5584169999999995 73.398417 0 0 0
1505 0 8 -1.05 10.895252000000001 0.2215820000000015 76.54158199999999 0 1 0
155 0 8 -1.05 4.461582 8.701582 74.49525199999998 0 0 0
158 0 8 -1.05 6.655251999999999 8.701582 72.30158199999998 0 0 0
175 0 8 -1.05 2.415252 8.701582 76.54158199999999 0 0 0
701 1 7 1.575 7.678417 11.918417000000002 71.27841699999999 0 0 0
749 2 7 1.575 6.618416999999999 10.858417000000001 76.578417 0 0 0
746 2 7 1.575 4.498416999999999 8.738417 76.578417 0 0 0
748 0 8 -1.05 6.581580999999999 8.775252 76.615252 0 0 0
747 0 8 -1.05 4.535251999999999 10.821582000000001 76.615252 0 0 0
719 0 8 -1.05 0.295252 10.821582000000001 72.37525199999999 0 0 0
729 0 8 -1.05 6.655251999999999 10.895252000000001 74.49525199999998 0 0 0
718 0 8 -1.05 0.295252 8.775252 74.421581 0 0 0
720 0 8 -1.05 2.3415820000000003 8.775252 72.37525199999999 0 0 0
721 0 8 -1.05 2.3415820000000003 10.821582000000001 74.421581 0 0 0
726 0 8 -1.05 4.461582 10.895252000000001 72.30158199999998 0 0 0
716 2 6 1.05 0.258417 8.738417 72.33841699999998 0 0 0
722 2 7 1.575 2.3784170000000002 8.738417 74.458417 0 0 0
717 2 7 1.575 0.258417 10.858417000000001 74.458417 0 0 0
723 2 7 1.575 2.3784170000000002 10.858417000000001 72.33841699999998 0 0 0
724 1 7 1.575 3.4384170000000003 11.918417000000002 75.51841699999999 0 0 0
727 1 7 1.575 5.5584169999999995 9.798417 73.398417 0 0 0
1124 0 8 -1.05 0.2215820000000015 10.895252000000001 76.54158199999999 1 0 0
744 0 8 -1.05 8.701582 10.895252000000001 76.54158199999999 0 0 0
365 0 8 -1.05 10.895252000000001 8.701582 76.54158199999999 0 0 0
909 0 8 -1.05 8.775252 10.821582000000001 72.37525199999999 0 0 0
908 0 8 -1.05 8.775252 8.775252 74.421581 0 0 0
910 0 8 -1.05 10.821582000000001 8.775252 72.37525199999999 0 0 0
911 0 8 -1.05 10.821582000000001 10.821582000000001 74.421581 0 0 0
906 2 7 1.575 8.738417 8.738417 72.33841699999998 0 0 0
912 2 7 1.575 10.858417000000001 8.738417 74.458417 0 0 0
907 2 7 1.575 8.738417 10.858417000000001 74.458417 0 0 0
913 2 6 1.05 10.858417000000001 10.858417000000001 72.33841699999998 0 0 0
914 1 7 1.575 11.918417000000002 11.918417000000002 75.51841699999999 0 0 0
186 0 3 -0.804 2.2563369436753393 6.351462398874851 78.53022288338103 0 0 0
180 0 3 -0.804 0.6314131829080636 4.8817733389061795 78.58762159119188 0 0 0
183 0 1 0.731 1.4428678676162325 5.637879882108889 79.13138495708998 0 0 0
184 0 2 -0.123 1.446902762044016 5.680324046427249 80.23136362002427 0 0 0
376 0 3 -0.804 10.676350541826084 6.333714944596524 78.53494740611981 0 0 0
370 0 3 -0.804 9.05780629942203 4.855201780939447 78.56695288096907 0 0 0
373 0 1 0.731 9.873309622586977 5.596143129287938 79.12425536772072 0 0 0
374 0 2 -0.123 9.885730457531343 5.606800802762961 80.22480546415937 0 0 0
584 0 1 0.731 3.3221176640380863 16.08788723685541 48.58760100920907 0 0 0
583 0 2 -0.123 3.319505740328619 16.056795075072564 47.48748344082285 0 0 0
774 0 1 0.731 11.757384062589571 16.054147426024343 48.5829084932764 0 0 0
773 0 2 -0.123 11.760433247127821 15.995978208474837 47.4835256279071 0 0 0
771 0 3 -0.804 10.934243126006807 15.353514312084986 49.188278539302814 0 0 0
573 0 3 -0.804 4.131840279852713 16.838449032740492 49.138805562823514 0 0 0
1154 0 1 0.731 3.359971140720705 24.601075874513857 48.59036455367147 0 0 0
1153 0 2 -0.123 3.361795194414441 24.583311109106734 47.48978328434527 0 0 0
1151 0 3 -0.804 2.545508335400453 23.871895562993473 49.17513421732032 0 0 0
1344 0 1 0.731 11.786895503040467 24.54491074014998 48.586368526206655 0 0 0
1343 0 2 -0.123 11.8051957114485 24.47842558463863 47.487606046217266 0 0 0
1333 0 3 -0.804 12.583935335097937 25.315038524810646 49.12924999776877 0 0 0
1341 0 3 -0.804 10.96001900478655 23.845075897988817 49.1871279091031 0 0 0
581 0 3 -0.804 2.509541181434575 15.366352923027863 49.18304306757076 0 0 0
763 0 3 -0.804 12.564993666002863 16.816974914744797 49.1203196587998 0 0 0
1143 0 3 -0.804 4.169361895642648 25.347440255483868 49.14918303796034 0 0 0
1342 2 7 1.575 10.858417000000001 23.578417 51.138417000000004 0 0 0