LAMMPS data file via write_data, version 17 Feb 2022, timestep = 240

2925 atoms
10 atom types
36 bonds
6 bond types
54 angles
6 angle types
0 dihedrals
2 dihedral types
9 impropers
2 improper types

0 25.44 xlo xhi
0 25.44 ylo yhi
-41.458422 32.908 zlo zhi

Masses

1 12.011
2 1.008
3 15.9994
4 15.9994
5 1.008
6 55.845
7 55.845
8 15.9994
9 15.9994
10 1.008

Pair Coeffs # lj/cut/coul/long

1 0.0988 3.31521
2 0.0161 2.4473
3 0.1463 3.04812
4 0.093 3.24287
5 0.0047 0.537925
6 9.0298e-07 4.9062
7 9.0298e-07 4.9062
8 0.1554 3.16554
9 0.1554 3.16554
10 0 0

Bond Coeffs # harmonic

1 361.8 1.105
2 652.57 1.218
3 383.13 1.351
4 563.51 0.973
5 554.135 1
6 0 2.08

Angle Coeffs # harmonic

1 51.617 106.55
2 65.93 123.65
3 65.262 109.49
4 115.745 122.1
5 118.817 130.25
6 30 109.47

Dihedral Coeffs # fourier

1 1 2.3 2 180
2 2 2.3 2 180 1.9 1 0

Improper Coeffs # cvff

1 10.5 -1 2
2 10.5 -1 2

Atoms # full

9 0 8 1.05 2.5405957713970606 3.145993594683967 -31.27138725385856 0 0 0
79 0 7 1.575 6.541129529367601 7.586283469029187 -29.452792587757628 0 0 0
2 0 7 1.575 0.26379947933293496 1.2872557580799306 -29.519638691403284 0 0 0
72 0 7 1.575 4.553892408152246 5.381964393512913 -29.513120644545506 0 0 0
12 0 8 -1.05 4.641500127034116 3.5046590474771766 -29.784995874211347 0 0 0
75 0 8 -1.05 4.4914300977850905 7.41991783516678 -29.53425794759159 0 0 0
6 0 8 -1.05 2.1748855368462987 1.1851143812721083 -29.70997235182081 0 0 0
68 0 8 -1.05 2.571956704931161 5.594649847403647 -29.55718243852084 0 0 0
76 0 8 -1.05 6.450959099401512 5.66840223954341 -29.592861988986467 0 0 0
5 0 8 -1.05 0.34579764579995004 3.256323685430163 -29.78512038688373 0 0 0
18 0 8 -1.05 6.536993329675745 1.0616869709719938 -29.5969060503856 0 0 0
62 0 8 -1.05 0.484711921657154 7.572071878436902 -29.624955821118437 0 0 0
15 0 7 1.575 5.5036504742846155 2.290520077344032 -28.594523102434994 0 0 0
65 0 7 1.575 2.4391909914821506 7.596095846565267 -29.42841758769744 0 0 0
78 0 6 1.05 6.625902453318224 5.380566909196595 -27.555669464318278 0 0 0
3 0 6 1.05 0.24554866788796387 3.296897134450324 -27.775301298764447 0 0 0
73 0 6 1.05 4.586081324560141 7.61390722658912 -27.41222323286923 0 0 0
8 0 6 1.05 2.4554163081582283 1.3029779398192265 -27.755770106520256 0 0 0
7 0 8 -1.05 2.3584269467845997 3.3537785519594197 -27.19966752481403 0 0 0
74 0 8 -1.05 4.472105174492558 5.50707178712473 -27.544616185633178 0 0 0
69 0 8 -1.05 2.5449282125857993 7.506370538095627 -27.415695697963777 0 0 0
4 0 8 -1.05 0.37918315969302085 1.2929059333062287 -27.504188683785962 0 0 0
19 0 8 -1.05 6.77562875416552 3.25387805563408 -27.334393637422654 0 0 0
77 0 8 -1.05 6.5861790242355305 7.511343415348288 -27.43805716687355 0 0 0
11 0 8 -1.05 4.512318369940097 1.1731940273181578 -27.299023033534763 0 0 0
61 0 8 -1.05 0.5614838972270305 5.303397963094317 -27.61990730585705 0 0 0
82 0 8 -1.05 8.504738768150538 7.698241601907087 -29.51965273346197 0 0 0
29 0 8 1.05 11.258946422575976 3.0796432584398046 -31.096336179320076 0 0 0
22 0 8 1.05 8.224841032733943 1.0491997535721447 -31.53170779906799 0 0 0
26 0 8 -1.05 10.633179371532771 0.5782488760898784 -30.712971986534903 0 0 0
88 0 8 -1.05 10.793866871861715 5.377391359573334 -29.931540671563273 0 0 0
25 0 8 -1.05 9.22465349920468 2.5273284616172895 -29.532660809264414 0 0 0
81 0 8 -1.05 8.7225693452613 5.302609941030761 -27.60209835345641 0 0 0
85 0 7 1.575 9.816680753492522 6.503915352072965 -28.775060249316542 0 0 0
23 0 7 1.575 8.841292855789149 3.2946548975739285 -27.834262696942496 0 0 0
28 0 7 1.575 9.905776396901361 0.7280481725310206 -28.909431682455832 0 0 0
27 0 8 -1.05 10.595077118212245 3.406087856458147 -26.862056065443756 0 0 0
89 0 8 -1.05 10.828236903468312 7.655307427670005 -27.410215826329296 0 0 0
24 0 8 -1.05 8.897178710162898 1.3353563780764823 -27.212741267954474 0 0 0
99 0 8 1.05 15.001096592564481 7.525864140702009 -30.933903960004425 0 0 0
92 0 6 1.05 12.755454399216326 5.421477170664172 -29.559002471874276 0 0 0
32 0 8 -1.05 12.732473031651491 3.369027510236707 -28.987862701378827 0 0 0
95 0 8 -1.05 12.839645753929192 7.436707897641544 -29.496774640131648 0 0 0
96 0 8 -1.05 14.753154008001088 5.307831512260608 -29.625534061403613 0 0 0
38 0 8 -1.05 15.349975994230055 1.2927530009651234 -29.911096464864563 0 0 0
35 0 7 1.575 14.267616301199807 2.2549850885742826 -28.717671210480468 0 0 0
98 0 7 1.575 15.089791809913525 5.518512414008357 -27.760616946611833 0 0 0
93 0 7 1.575 12.96072157858882 7.591467571139608 -27.60893434697623 0 0 0
94 0 8 -1.05 13.051437528426163 5.611238362899934 -27.347420825243653 0 0 0
39 0 8 -1.05 14.96290141500408 3.512463632491523 -27.351309182046418 0 0 0
97 0 8 -1.05 14.920725584246297 7.46767407545794 -27.29411285721447 0 0 0
31 0 8 -1.05 13.23929564043067 1.1726124092700805 -27.367548409660802 0 0 0
51 0 8 -1.05 21.402773422609012 1.1372148130813995 -27.24000901192054 0 0 0
117 0 8 -1.05 23.650213161138545 7.474408995273439 -27.49458812843845 0 0 0
59 0 8 -1.05 23.71331906471086 3.1726094156844566 -27.305012657662125 0 0 0
44 0 8 -1.05 17.158407229461552 1.249548347539581 -27.507974403317903 0 0 0
109 0 8 -1.05 19.398377614810492 7.659027607488236 -27.45709743209651 0 0 0
114 0 8 -1.05 21.397672569981804 7.561535654333195 -25.42654954735898 0 0 0
47 0 8 -1.05 19.03951454221373 3.2360164864153416 -27.234458928002926 0 0 0
48 0 6 1.05 19.32300736287577 1.1451624590484553 -27.546453381450224 0 0 0
113 0 6 1.05 21.59935575337666 7.7155140559296616 -27.693852162098874 0 0 0
43 0 6 1.05 17.032051344851624 3.341732155460298 -27.464413159021333 0 0 0
118 0 6 1.05 0.2858407641583283 5.3186088206432345 -29.675874003810076 1 0 0
105 0 7 1.575 18.25986289847949 6.580136492759116 -28.70335394087567 0 0 0
55 0 7 1.575 22.479589230608365 2.2051268052754693 -28.466684529133936 0 0 0
101 0 8 -1.05 17.081462387210237 5.560199111018765 -27.433938356654508 0 0 0
58 0 8 -1.05 23.728551309249486 1.2245691291976217 -29.54017331044297 0 0 0
45 0 8 -1.05 17.3128952620061 3.2256313489008317 -29.448135262960232 0 0 0
116 0 8 -1.05 24.07637719161666 5.875538994333773 -30.625331284628658 0 0 0
108 0 8 -1.05 19.29489437433919 5.297712436399507 -29.613237744151057 0 0 0
46 0 8 -1.05 19.268688284700662 1.54759153772805 -29.527368840614617 0 0 0
115 0 8 -1.05 21.899492230702258 7.391864500635698 -29.59369767755689 0 0 0
52 0 8 -1.05 21.220265954883498 3.6858667592927947 -28.551358859476302 0 0 0
112 0 8 1.05 21.597669228470362 5.2016973681864975 -30.881695176687742 0 0 0
42 0 7 1.575 17.278110178706914 1.2381828195290105 -29.54826679444557 0 0 0
119 0 7 1.575 23.83723171243487 7.4656583050928464 -29.53014196296907 0 0 0
49 0 7 1.575 19.239937593040487 3.437689162967215 -29.22166149372646 0 0 0
102 0 8 -1.05 17.306863430516906 7.8418474896109664 -29.729311252134842 0 0 0
138 0 8 -1.05 6.6241451625741155 9.531655262806076 -29.507816763972908 0 0 0
129 0 8 1.05 2.520040145893408 11.760821908613307 -31.12631787956974 0 0 0
122 0 6 1.05 0.35505754150121677 9.634202191776689 -29.663769276387363 0 0 0
132 0 8 -1.05 4.638991519571067 12.094852047180092 -29.686296196843585 0 0 0
126 0 8 -1.05 2.4078381503184128 9.516070068420921 -29.637561015422914 0 0 0
125 0 8 -1.05 0.3523870008901602 11.639504481167748 -29.7972026611677 0 0 0
131 0 8 -1.05 4.57616336464304 9.758494847066672 -27.3462931910041 0 0 0
135 0 7 1.575 5.611694685579103 10.880105182524066 -28.605722631636592 0 0 0
123 0 7 1.575 0.3306499707678361 11.907487128338293 -27.936409563780533 0 0 0
128 0 6 1.05 2.519666268263077 9.945848335121365 -27.66406871993383 0 0 0
127 0 8 -1.05 2.175820214855068 11.948573712813731 -27.086964872381216 0 0 0
124 0 8 -1.05 0.4310001617924903 9.962398765610141 -27.499377423945756 0 0 0
139 0 8 -1.05 6.737335712241412 11.965369416143346 -27.38545023359352 0 0 0
199 0 7 1.575 6.612488357429068 16.152464534470493 -29.451717540725056 0 0 0
192 0 7 1.575 4.579766079126707 13.998559196650866 -29.48393090979157 0 0 0
195 0 8 -1.05 4.67822680638568 15.94073181152366 -29.516991072299646 0 0 0
188 0 8 -1.05 2.605844441124662 13.983562332741474 -29.197339724180928 0 0 0
196 0 8 -1.05 6.547795877342359 14.18597115952746 -29.38108223783981 0 0 0
182 0 8 -1.05 0.0691790954354277 16.34935755262529 -29.83429739804543 0 0 0
185 0 7 1.575 1.2016721711046607 15.257455073613214 -28.857793141436126 0 0 0
198 0 7 1.575 6.652646138873387 13.971259938242357 -27.44619738350651 0 0 0
193 0 6 1.05 4.49831839826962 16.231609194049092 -27.514277319806585 0 0 0
194 0 8 -1.05 4.651123330993411 14.07532700809448 -27.420069294283387 0 0 0
189 0 8 -1.05 2.320157145682309 15.970518075922488 -27.31313429053323 0 0 0
197 0 8 -1.05 6.594223331054635 16.00741881841885 -27.363906158294963 0 0 0
181 0 8 -1.05 0.3454668184703412 13.920384321064395 -27.51775147813207 0 0 0
149 0 8 1.05 10.818934041191536 11.87281537158799 -30.906733056081354 0 0 0
142 0 7 1.575 8.596728408133156 9.646492265597601 -29.50994736163443 0 0 0
146 0 8 -1.05 10.519484238273325 9.678096617923535 -29.538494164689915 0 0 0
145 0 8 -1.05 8.578768853976815 11.579571540154623 -29.531562603623296 0 0 0
143 0 7 1.575 8.751860344992386 11.884673308700975 -27.643322905516847 0 0 0
148 0 7 1.575 10.886817359202121 9.717350306086024 -27.659464139431485 0 0 0
147 0 8 -1.05 10.674147603937257 11.663218585414192 -27.218528105488982 0 0 0
144 0 8 -1.05 8.757371404171693 9.808635682630152 -27.44222394297771 0 0 0
202 0 8 -1.05 8.553380616165201 16.24074255939556 -29.44373650478344 0 0 0
208 0 8 -1.05 11.072219811163436 14.095325924860147 -29.56245366701794 0 0 0
201 0 8 -1.05 8.74526158060627 13.916938461957411 -27.34314149655083 0 0 0
205 0 7 1.575 9.848931051396264 15.143675377357921 -28.592458082189896 0 0 0
209 0 8 -1.05 10.959735971565959 16.122641137090792 -27.261870967774865 0 0 0
158 0 8 -1.05 15.327907164802465 9.822524923786169 -29.70376194273099 0 0 0
152 0 8 -1.05 12.991643650198125 12.0695705896624 -29.421071342635674 0 0 0
151 0 8 -1.05 12.881943551940562 9.63756689178629 -27.46594957276665 0 0 0
155 0 7 1.575 14.076801268941818 10.73983295943363 -28.63582076422281 0 0 0
159 0 8 -1.05 15.202741085898568 11.782549656218983 -27.326220236455406 0 0 0
219 0 7 1.575 15.17492916375354 16.09036341719894 -29.46306034486764 0 0 0
212 0 7 1.575 13.004245079519501 14.004960056027754 -29.447219867876534 0 0 0
215 0 8 -1.05 13.20001168029805 15.99130144770987 -29.367275472165627 0 0 0
216 0 8 -1.05 14.965067745516599 14.158428716543403 -29.544757011857733 0 0 0
218 0 6 1.05 15.15036613497339 13.890645819068778 -27.57091004975083 0 0 0
213 0 7 1.575 13.015002689922625 16.157831707291518 -27.44714926323366 0 0 0
214 0 8 -1.05 13.041884614826307 14.105417411880264 -27.379293191213318 0 0 0
217 0 8 -1.05 15.043391008633064 16.004565500945642 -27.362033599120714 0 0 0
179 0 8 -1.05 23.819239533271695 11.909977346012019 -27.424005533936626 0 0 0
164 0 8 -1.05 17.31478204652583 9.76659834470604 -27.50993397323456 0 0 0
167 0 8 -1.05 19.12968867432113 11.614996951476789 -27.154034252568756 0 0 0
168 0 7 1.575 19.41429050608143 9.667873037940932 -27.619116429553934 0 0 0
163 0 7 1.575 17.21483876991835 11.84755302046071 -27.592455929153502 0 0 0
175 0 7 1.575 22.65053816826666 10.716468322445195 -28.716585103550504 0 0 0
171 0 8 -1.05 21.433059655677006 9.772922334950259 -27.45588418974268 0 0 0
165 0 8 -1.05 17.39169953461302 11.726252919471749 -29.48613435652184 0 0 0
166 0 8 -1.05 19.24713372436937 9.906225792045857 -29.51769805076587 0 0 0
172 0 8 -1.05 21.317980492509946 12.065606841257354 -28.88965637495368 0 0 0
162 0 7 1.575 17.266016829598513 9.768272176361014 -29.62874203439276 0 0 0
169 0 6 1.05 19.40477562239312 11.919662522795544 -29.817822386211063 0 0 0
178 0 8 -1.05 23.822639808788225 9.442694723340681 -29.46586158998432 0 0 0
237 0 8 -1.05 23.634672480609876 15.956104592787224 -27.217476330263118 0 0 0
229 0 8 -1.05 19.349637706051368 16.05828266796202 -27.269138132776863 0 0 0
234 0 8 -1.05 21.71840222369049 14.099499060773796 -27.159888029396644 0 0 0
233 0 6 1.05 21.511068573594613 16.08396541182424 -27.407858796077072 0 0 0
238 0 7 1.575 23.661496756712054 14.026400707048534 -27.552788400295405 0 0 0
225 0 7 1.575 18.32869658348767 14.953767878569039 -28.54565265820827 0 0 0
221 0 8 -1.05 17.224379195848492 13.838643597260726 -27.318848789383882 0 0 0
236 0 8 -1.05 23.463079228095832 14.13762502397149 -29.448249529723658 0 0 0
228 0 8 -1.05 19.471563945635967 13.904493411437695 -29.59930845356392 0 0 0
235 0 8 -1.05 21.537608763409704 16.205779838236555 -29.408382395956064 0 0 0
232 0 6 1.05 21.445549522387356 14.128415997247302 -29.52055329725877 0 0 0
239 0 6 1.05 23.535015134146807 16.105131242788417 -29.910557842394457 0 0 0
222 0 8 -1.05 17.15142559972284 16.17294972382809 -29.407266806978953 0 0 0
258 0 8 -1.05 6.704220566796503 18.103203894349438 -29.449580014474584 0 0 0
249 0 7 1.575 2.358075916868908 20.36258215713083 -29.567279574473613 0 0 0
319 0 7 1.575 6.629748806829997 24.594291345125665 -29.31147747828596 0 0 0
242 0 6 1.05 25.374479092578476 18.360409580376235 -29.995946823821008 -1 0 0
312 0 6 1.05 4.489626886111068 22.46264264188606 -29.650521874767165 0 0 0
252 0 8 -1.05 4.31114733361955 20.422895351959156 -29.535800968928438 0 0 0
315 0 8 -1.05 4.669399877716591 24.471938307527147 -29.381114373146925 0 0 0
246 0 8 -1.05 2.221544706073151 18.384827529422434 -29.445719923748815 0 0 0
308 0 8 -1.05 2.4363969150674802 22.316679274565942 -29.421891657601705 0 0 0
316 0 8 -1.05 6.574530439530164 22.672878519390636 -29.525986257032375 0 0 0
245 0 8 -1.05 0.40678227416761686 20.277061265890403 -29.575704474294472 0 0 0
302 0 8 -1.05 0.13738547473536594 24.771294128582465 -29.497715585290006 0 0 0
251 0 8 -1.05 4.3305755076307735 18.257456346456287 -27.39603325297061 0 0 0
255 0 7 1.575 5.506078827310576 19.315745259722362 -28.592027419744117 0 0 0
305 0 7 1.575 1.272126990405881 23.550060714216905 -28.573445399134798 0 0 0
318 0 6 1.05 6.55166522448994 22.38672812491908 -27.55985110283485 0 0 0
243 0 7 1.575 0.055830806016961665 20.406175188898956 -27.706802337922657 0 0 0
313 0 7 1.575 4.412400881824397 24.566724177443017 -27.489312408988102 0 0 0
248 0 7 1.575 2.3146051121345117 18.273928148830002 -27.538705484263804 0 0 0
247 0 8 -1.05 2.2024494148453355 20.275982544971068 -27.428302678411978 0 0 0
314 0 8 -1.05 4.553356310935018 22.60548540807738 -27.240089923715097 0 0 0
309 0 8 -1.05 2.4320563442402774 24.578767928143396 -27.2794816779193 0 0 0
244 0 8 -1.05 0.32478600428644727 18.434521072057297 -27.283842436593634 0 0 0
259 0 8 -1.05 6.646916195072537 20.288419331962476 -27.274383141416564 0 0 0
317 0 8 -1.05 6.468153488650423 24.565026876437 -27.290200513447306 0 0 0
301 0 8 -1.05 0.22692428848562635 22.374573783987554 -27.258599319730035 0 0 0
322 0 8 -1.05 8.614174180386769 24.674186641854607 -29.240181095346248 0 0 0
269 0 6 1.05 10.854745076288776 20.188266690110652 -29.79358703328534 0 0 0
262 0 7 1.575 8.664846393138493 18.21981226417111 -29.441006344528862 0 0 0
264 0 8 -1.05 8.71211431188968 18.288702395138376 -27.383050357639593 0 0 0
266 0 8 -1.05 10.575253699355025 18.205465554497437 -29.560709967894827 0 0 0
329 0 8 -1.05 10.849972229062583 24.693845380316354 -27.619082985509863 0 0 0
328 0 8 -1.05 10.997418910057757 21.8698161338485 -28.47421500545654 0 0 0
267 0 8 -1.05 10.571141639654938 19.958485747537043 -26.541316223212572 0 0 0
268 0 6 1.05 11.02672571839291 18.21678433630971 -27.64364091195662 0 0 0
265 0 8 -1.05 8.856960882420385 20.173710771378733 -29.325437853334105 0 0 0
263 0 7 1.575 8.700474527531794 20.324877733187115 -27.414608406836095 0 0 0
321 0 8 -1.05 8.612616547458625 22.33166604405718 -27.206921972765418 0 0 0
325 0 7 1.575 9.7382951128386 23.301368035098882 -28.509541801418997 0 0 0
278 0 8 -1.05 15.345719255097919 18.036967005198992 -29.44096534264441 0 0 0
339 0 8 1.05 15.0949700908589 24.31180260379492 -30.88266915229899 0 0 0
332 0 6 1.05 12.928671375548207 22.192202831428844 -29.383397937861755 0 0 0
337 0 8 -1.05 15.015382772935155 24.424385187472154 -27.24564791170772 0 0 0
272 0 8 -1.05 12.814997246882575 20.20379201907471 -29.560523337155974 0 0 0
335 0 8 -1.05 12.885062688772356 24.173767705566664 -29.487644237667382 0 0 0
279 0 8 -1.05 15.165930746435459 20.40434680625685 -27.27838036085252 0 0 0
336 0 8 -1.05 14.932647988618918 22.174928298854446 -29.448915424833057 0 0 0
334 0 8 -1.05 13.219712917316379 22.568129822897156 -27.156637642520753 0 0 0
333 0 7 1.575 13.009267216822488 24.59714025227963 -27.63586301554123 0 0 0
271 0 8 -1.05 13.07544964316926 18.151673522290142 -27.36281749205425 0 0 0
275 0 7 1.575 14.186893678420338 19.31754625013933 -28.62451915942475 0 0 0
338 0 7 1.575 15.179545444867978 22.465484637708663 -27.5945743866509 0 0 0
357 0 8 -1.05 23.507419344351803 24.57521278460004 -27.477269813043094 0 0 0
299 0 8 -1.05 23.55797151016466 20.447075022191378 -27.161620743958473 0 0 0
284 0 8 -1.05 17.32837977512118 18.247812221918153 -27.37228709377824 0 0 0
349 0 8 -1.05 19.30564958247347 24.527473236435114 -27.320863113987617 0 0 0
354 0 8 -1.05 21.613180826296976 22.420638460770213 -26.993235145753083 0 0 0
287 0 8 -1.05 19.448575330905665 20.211789677679022 -27.403808631478043 0 0 0
288 0 6 1.05 19.346529347066863 18.136123498983373 -27.38477851461221 0 0 0
353 0 6 1.05 21.347460196614467 24.457859348207133 -27.793465381453313 0 0 0
283 0 6 1.05 17.284283876353108 20.375066684095064 -27.50082011751211 0 0 0
358 0 6 1.05 23.585544861854128 22.518024950022998 -27.636123684959948 0 0 0
345 0 7 1.575 18.325645637456187 23.466620113539204 -28.651361942165984 0 0 0
295 0 7 1.575 21.505047246496837 18.16552007975489 -29.426422469154026 0 0 0
291 0 8 -1.05 21.42573346113534 18.244821907456945 -27.2942804461466 0 0 0
341 0 8 -1.05 17.17808588414858 22.4788400005297 -27.32571492261148 0 0 0
285 0 8 -1.05 17.452421547382606 20.02916613179261 -29.49221675281506 0 0 0
356 0 8 -1.05 23.733331896566934 22.730419456342712 -29.585942520441705 0 0 0
348 0 8 -1.05 19.32666073503162 22.211328631242434 -29.664664620974953 0 0 0
286 0 8 -1.05 19.40740744937221 18.283082661463748 -29.458753561757575 0 0 0
355 0 8 -1.05 21.734016145143578 24.64633406241869 -29.736694182910963 0 0 0
292 0 8 -1.05 21.28971374497671 20.136029063712662 -29.35478777736575 0 0 0
352 0 8 1.05 21.607807411082533 22.324664678102874 -30.948153217643178 0 0 0
282 0 7 1.575 17.332750137039955 18.115769866859633 -29.402023132734755 0 0 0
359 0 7 1.575 23.62957017951679 24.656921768617213 -29.487652060428715 0 0 0
289 0 7 1.575 19.338838918215878 20.332344863149054 -29.391847757306685 0 0 0
298 0 8 -1.05 23.332258104741285 18.119667806037462 -30.05163872435707 0 0 0
342 0 8 -1.05 17.394414934136485 24.7519532179541 -29.685153666878044 0 0 0
70 0 7 1.575 2.5265864602943346 5.293289202964 -27.501314067560234 0 0 0
71 0 8 -1.05 4.393316841277487 7.6970732763984975 -25.242077912992173 0 0 0
80 0 8 -1.05 6.641969588956091 5.328486817739314 -25.348966434971775 0 0 0
364 0 7 1.575 2.3154035247637825 3.1862017674974714 -25.287241391266303 0 0 0
416 0 7 1.575 8.31174799240655 3.6676934678853104 -22.852020521204526 0 0 0
412 0 7 1.575 5.5274570129277985 6.454333825814799 -24.29536922274672 0 0 0
13 0 7 1.575 4.480544721040747 1.246637402572017 -25.34571802309187 0 0 0
366 0 6 1.05 2.363751238007714 3.3418360835372245 -21.117661802288072 0 0 0
414 0 6 1.05 6.555275979231235 7.569579658702679 -21.166847181866054 0 0 0
407 0 6 1.05 2.3637785339593247 5.548786401044984 -23.397285746225766 0 0 0
404 0 6 1.05 0.1965710140439544 7.535102170585905 -23.41876124356131 0 0 0
63 0 7 1.575 0.10744996302919636 5.548272936396553 -25.79684231344581 0 0 0
370 0 7 1.575 4.472242086952932 3.4106836217720335 -23.092439151365323 0 0 0
373 0 6 1.05 6.540957097181649 1.2334394793951617 -23.124222056252684 0 0 0
362 0 7 1.575 0.23602010573920465 1.2830241275720884 -20.892318329099062 0 0 0
17 0 7 1.575 6.551408636466091 3.3553874758653883 -25.36928676528888 0 0 0
67 0 7 1.575 2.3427614661676364 7.659326715741439 -25.439480240510765 0 0 0
410 0 7 1.575 4.348222305054328 5.553178513378999 -21.069924005985534 0 0 0
16 0 8 -1.05 6.4545967519145675 1.3382397895761582 -25.17586703593269 0 0 0
369 0 8 -1.05 4.368848529760296 3.5169066899562487 -21.02922959694549 0 0 0
411 0 8 -1.05 4.338028303924121 7.591011610698975 -20.943856531528255 0 0 0
405 0 8 -1.05 0.3553512289341719 5.435708350874424 -22.88393026333129 0 0 0
415 0 8 -1.05 6.682269506284884 7.5912602222041805 -23.18414310733781 0 0 0
64 0 8 -1.05 0.3257030374583813 7.481805697162347 -25.426857568223987 0 0 0
409 0 8 -1.05 4.388825303835048 5.443024177512389 -23.043953932771974 0 0 0
365 0 8 -1.05 2.2847105935232066 1.2769981958150702 -20.797132686096926 0 0 0
372 0 8 -1.05 6.433137371138967 3.3107008009168832 -23.127921155640646 0 0 0
408 0 8 -1.05 2.355360716402347 5.4036750341745465 -20.899395102973223 0 0 0
413 0 8 -1.05 6.271645389264632 5.63175967794471 -20.79124853480143 0 0 0
14 0 8 -1.05 4.446178997388823 3.213593648246541 -25.043044899671738 0 0 0
406 0 8 -1.05 2.2476159393685733 7.55671953186572 -23.377985491305036 0 0 0
371 0 8 -1.05 4.487049605526992 1.3930746862639267 -23.018314362507976 0 0 0
363 0 8 -1.05 0.33434412415784603 3.440283990172556 -20.874962904370232 0 0 0
66 0 8 -1.05 2.194716110097435 5.551770662848019 -25.42937163632628 0 0 0
367 0 8 -1.05 2.3560088531688907 3.4944377517486496 -23.20051561205285 0 0 0
10 0 8 -1.05 2.5178236750892085 1.2403015175580827 -25.249509808434354 0 0 0
374 0 8 -1.05 6.626081996434532 1.0788746812643204 -20.823696213118854 0 0 0
1 0 8 -1.05 0.3351553018033813 3.6017185889444723 -25.13224337224784 0 0 0
403 0 8 -1.05 0.15122757164440237 7.578681763618582 -20.747041035193444 0 0 0
361 0 8 -1.05 0.18948670952004326 1.4508791197863236 -22.796406175047245 0 0 0
622 0 7 1.575 5.566307767532785 2.4279440187154817 -20.01839385682733 0 0 0
658 0 7 1.575 0.36806817356479676 5.528637056116207 -20.95339292822242 0 0 0
20 0 7 1.575 7.6421000464243525 0.26580600393312376 -26.30397725123722 0 0 0
368 0 7 1.575 3.334499640518866 0.21689337415272683 -22.07783919107266 0 0 0
21 0 8 -1.05 8.534204058934577 3.4890388330844866 -24.819376181929723 0 0 0
417 0 8 -1.05 8.678452389231033 7.744163280103752 -21.050173286768782 0 0 0
375 0 8 -1.05 8.556875715780036 1.2257122047471813 -22.945871635064723 0 0 0
90 0 7 1.575 12.442422962372962 3.813628584337554 -27.13172657304933 0 0 0
378 0 7 1.575 10.367643714721654 2.9189636534168453 -25.029953635144473 0 0 0
380 0 6 1.05 10.897919507268085 3.3360290861705373 -21.148783221255893 0 0 0
421 0 7 1.575 10.896340653017663 5.527312851356326 -23.122038440801305 0 0 0
418 0 7 1.575 8.670541822991755 7.502110389144945 -23.195813409641023 0 0 0
83 0 6 1.05 8.70594653889884 5.477621906695364 -25.59460632326205 0 0 0
376 0 6 1.05 8.747128474421565 1.216836986700101 -20.98113094321287 0 0 0
87 0 7 1.575 10.808170355796147 7.523632209773377 -25.457531442486665 0 0 0
419 0 8 -1.05 8.897890047793759 5.542271523750977 -22.88755828568848 0 0 0
84 0 8 -1.05 8.785726966667905 7.585855881138607 -25.171770899032563 0 0 0
379 0 8 -1.05 10.871593613581172 1.259020650643331 -20.85274721087646 0 0 0
422 0 8 -1.05 11.022507524392214 5.453375400854285 -21.054165420753066 0 0 0
420 0 8 -1.05 10.723192556215654 7.520542521394552 -23.089111363358686 0 0 0
377 0 8 -1.05 8.839814513547188 3.2896024886572306 -20.966764343907446 0 0 0
86 0 8 -1.05 10.66576938242187 5.6126806852780495 -25.033151904243237 0 0 0
381 0 8 -1.05 10.957688825882803 3.5268339529844543 -23.18407599561338 0 0 0
30 0 8 -1.05 11.101548545621634 1.1764797005939687 -24.909611747259728 0 0 0
672 0 7 1.575 9.737317367752157 6.478632669969094 -20.10808843977294 0 0 0
382 0 7 1.575 11.860971313022151 0.28747749002489653 -22.243370340729918 0 0 0
91 0 8 -1.05 12.777831886423153 7.652850963480371 -25.320955986290805 0 0 0
100 0 8 -1.05 15.281216623301663 5.447867428292765 -25.256447322235665 0 0 0
430 0 7 1.575 16.243594829177923 4.469973225175553 -22.276690368441745 0 0 0
426 0 7 1.575 14.014911247118519 6.549260667335648 -24.39828677412723 0 0 0
33 0 7 1.575 13.010991461444455 1.1920740472115812 -25.43116733494633 0 0 0
428 0 7 1.575 15.149927380917175 7.5770790031773165 -21.162356853415744 0 0 0
384 0 7 1.575 12.993131113807971 3.4085572494158543 -23.256782318366906 0 0 0
387 0 7 1.575 15.146152888660124 1.2799157896534652 -23.18420772289656 0 0 0
37 0 6 1.05 15.09756151897793 3.387208164131911 -25.346612345758842 0 0 0
424 0 6 1.05 13.082789657570181 5.4808631988336165 -21.115826894886524 0 0 0
36 0 8 -1.05 15.03087306187203 1.249013783255737 -25.14631751508325 0 0 0
383 0 8 -1.05 12.955407522633557 3.4330358589453986 -21.115989918964686 0 0 0
425 0 8 -1.05 13.118401472021354 7.635632736399972 -20.942741760120946 0 0 0
429 0 8 -1.05 15.11098211903375 7.5962435675495845 -23.108895256249006 0 0 0
423 0 8 -1.05 12.934527010732413 5.444398574954516 -23.161711806493955 0 0 0
386 0 8 -1.05 14.995997751344122 3.3022373097740054 -23.13241550659917 0 0 0
427 0 8 -1.05 15.190676050214323 5.588599270647044 -21.034056999713865 0 0 0
34 0 8 -1.05 12.950969645165832 3.2012616737726503 -25.245545008683127 0 0 0
385 0 8 -1.05 13.160088691656812 1.3919728754513467 -23.100016465479506 0 0 0
388 0 8 -1.05 15.20185008142786 1.2309804021782569 -21.099947197364095 0 0 0
636 0 7 1.575 14.049843539142762 2.3106650657964836 -20.053114273668154 0 0 0
40 0 7 1.575 16.166252032447098 0.16145838166582122 -26.340534251172787 0 0 0
396 0 7 1.575 20.523861866446058 0.1803233604704947 -22.192788234300423 0 0 0
60 0 7 1.575 24.640308922149654 0.24321885382061875 -26.420128818561622 0 0 0
686 0 7 1.575 18.334240715366384 6.593718665897353 -19.946419508817428 0 0 0
650 0 7 1.575 22.513625494963087 2.4078126587966673 -19.914106784005046 0 0 0
402 0 8 -1.05 23.72243293422391 1.1472314539899535 -20.59426971692069 0 0 0
50 0 8 -1.05 19.4523107057826 1.097414512182542 -25.190960614199923 0 0 0
395 0 8 -1.05 19.412502449809306 3.420837630515158 -23.069393763397414 0 0 0
106 0 8 -1.05 19.399888808928292 5.504656033216824 -25.52283873983285 0 0 0
391 0 8 -1.05 17.382672775751555 3.4361384107369926 -21.044123583206122 0 0 0
399 0 8 -1.05 21.54709877582548 1.4048954396909474 -23.19926729466775 0 0 0
434 0 8 -1.05 17.16213981155837 7.716611471836791 -20.96037184838186 0 0 0
54 0 8 -1.05 21.587739106173572 3.3077263781821435 -25.343897436392997 0 0 0
441 0 8 -1.05 23.47928914387394 5.658179411293161 -20.638827403915553 0 0 0
436 0 8 -1.05 19.538811904712134 5.414397716609334 -20.81434355198471 0 0 0
400 0 8 -1.05 23.66716348461593 3.294146960649395 -23.311861019569253 0 0 0
393 0 8 -1.05 19.432779907780017 1.3764756108958285 -20.933237419253686 0 0 0
437 0 8 -1.05 21.471391758472063 5.498613263633901 -23.091998232031205 0 0 0
104 0 8 -1.05 17.376232266400912 7.504588916444887 -25.393778155985355 0 0 0
443 0 8 -1.05 23.561390969457925 7.665469006179383 -23.211960353056902 0 0 0
433 0 8 -1.05 17.389524339658056 5.566470566134096 -23.31809771224885 0 0 0
439 0 8 -1.05 21.436594227060045 7.539799922024651 -21.010953167663388 0 0 0
397 0 8 -1.05 21.38053040228282 3.579030802619735 -20.869891856677118 0 0 0
56 0 8 -1.05 23.530175099663843 1.3313012074366835 -25.260193657692085 0 0 0
438 0 7 1.575 21.536870223945634 5.533358112817859 -21.176819054571567 0 0 0
107 0 7 1.575 19.40886053009187 7.524893297671779 -25.486992092236076 0 0 0
57 0 7 1.575 23.619276442159435 3.3357521635220793 -25.394965162299705 0 0 0
390 0 6 1.05 17.282254170588438 1.3037639714350968 -21.125503066044395 0 0 0
401 0 6 1.05 23.59211898149723 1.2201571369017825 -23.261834750379442 0 0 0
398 0 6 1.05 21.587146465738005 3.430925360350468 -23.31256822384093 0 0 0
103 0 7 1.575 17.268938696482195 5.458597570074142 -25.471155090995065 0 0 0
432 0 6 1.05 17.2558520871448 7.610729600667978 -23.376875268521168 0 0 0
435 0 6 1.05 19.435421857892237 5.44606708273089 -23.48421881680373 0 0 0
442 0 6 1.05 23.51072877870305 7.602042811863026 -21.215468579732388 0 0 0
394 0 7 1.575 19.390545543221283 3.4164457298521573 -21.13654019122467 0 0 0
53 0 7 1.575 21.510522584512763 1.1536001939780858 -25.293113138578125 0 0 0
440 0 7 1.575 22.549113617177092 6.477963065051066 -24.37461063615184 0 0 0
444 0 7 1.575 0.1799050287752877 3.409470371359987 -23.17559465566454 1 0 0
392 0 7 1.575 18.34360267235468 2.3516268715479804 -24.314428522793666 0 0 0
120 0 8 -1.05 23.7180601113133 5.306539001766197 -25.256530656444145 0 0 0
111 0 8 -1.05 19.35771222499813 7.524926912390949 -23.372094362487044 0 0 0
110 0 7 1.575 20.568917907373667 4.227445603459358 -26.72171137619328 0 0 0
389 0 8 -1.05 17.15440062391109 1.2141777102554725 -23.164671244994654 0 0 0
431 0 8 -1.05 17.302335996741704 9.768025514866308 -18.968447138470903 0 0 0
41 0 8 -1.05 17.12905448091283 3.49740866815837 -25.207945323336613 0 0 0
140 0 7 1.575 7.675803634300273 8.646065258890156 -26.373604954672455 0 0 0
452 0 7 1.575 3.3131327316209567 8.636803510342977 -22.2453218966187 0 0 0
130 0 8 -1.05 2.552757392450048 9.637979467154862 -25.4037420525256 0 0 0
458 0 8 -1.05 6.762725512397412 9.653436464935657 -20.98020704818976 0 0 0
448 0 7 1.575 2.25364065641661 11.551414342177793 -25.169692585964526 0 0 0
133 0 7 1.575 4.557385215060003 9.684934468889344 -25.386911434153816 0 0 0
450 0 7 1.575 2.373972017604463 11.82715019786423 -21.109231502573586 0 0 0
454 0 7 1.575 4.511603857783776 11.847939707304791 -23.148282082694035 0 0 0
457 0 6 1.05 6.6189126490717145 9.688463290822925 -23.214332386302793 0 0 0
446 0 7 1.575 0.2720520346883211 9.588907003182985 -21.106691332560217 0 0 0
137 0 6 1.05 6.534323403895665 11.83487440321572 -25.358029723265403 0 0 0
136 0 8 -1.05 6.5266980992465635 9.734753936261557 -25.24456643561379 0 0 0
453 0 8 -1.05 4.364738711844429 11.864156193475488 -21.074056154523948 0 0 0
449 0 8 -1.05 2.2683243937690682 9.758954389993754 -21.02182433780796 0 0 0
456 0 8 -1.05 6.47584026005158 11.784673532645655 -23.101956333281414 0 0 0