LAMMPS data file via write_data, version 17 Feb 2022, timestep = 0

2970 atoms
10 atom types
72 bonds
6 bond types
108 angles
6 angle types
0 dihedrals
2 dihedral types
18 impropers
2 improper types

0 25.44 xlo xhi
0 25.44 ylo yhi
-41.458422 32.908 zlo zhi

Masses

1 12.011
2 1.008
3 15.9994
4 15.9994
5 1.008
6 55.845
7 55.845
8 15.9994
9 15.9994
10 1.008

Pair Coeffs # lj/cut/coul/long

1 0.0988 3.31521
2 0.0161 2.4473
3 0.1463 3.04812
4 0.093 3.24287
5 0.0047 0.537925
6 9.0298e-07 4.9062
7 9.0298e-07 4.9062
8 0.1554 3.16554
9 0.1554 3.16554
10 0 0

Bond Coeffs # harmonic

1 361.8 1.105
2 652.57 1.218
3 383.13 1.351
4 563.51 0.973
5 554.135 1
6 0 2.08

Angle Coeffs # harmonic

1 51.617 106.55
2 65.93 123.65
3 65.262 109.49
4 115.745 122.1
5 118.817 130.25
6 30 109.47

Dihedral Coeffs # fourier

1 1 2.3 2 180
2 2 2.3 2 180 1.9 1 0

Improper Coeffs # cvff

1 10.5 -1 2
2 10.5 -1 2

Atoms # full

1585 0 8 -1.05 17.078013 18.276275 -6.064752000000009 0 0 0
1332 0 8 -1.05 17.004343 20.396275 -8.184752000000007 0 0 0
1545 0 8 -1.05 19.198013 16.156275 -6.138422000000009 0 0 0
1626 0 8 -1.05 17.004343 22.442604 -6.138422000000009 0 0 0
1334 0 8 -1.05 19.198013 18.202605 -8.184752000000007 0 0 0
1592 0 8 -1.05 21.244342 18.202605 -6.138422000000009 0 0 0
1588 0 8 -1.05 19.124343 20.322605 -6.064752000000009 0 0 0
3 2 7 1.575 0.08117800000000011 1.2794399999999997 -29.421587 0 0 0
73 2 7 1.575 4.321177999999998 5.519439999999998 -29.421587 0 0 0
1371 0 8 -1.05 14.958013000000001 22.442604 -8.184752000000007 0 0 0
1632 0 8 -1.05 21.318012999999997 22.516274999999997 -6.064752000000009 0 0 0
1582 0 8 -1.05 14.958013000000001 20.396275 -6.138422000000009 0 0 0
1299 0 8 -1.05 21.244342 16.156275 -8.184752000000007 0 0 0
1373 2 7 1.575 17.041178 22.479439999999997 -8.221586999999996 0 0 0
357 2 7 1.575 23.401178 24.59944 -29.421587 0 0 0
1336 2 7 1.575 21.281177999999997 18.23944 -8.221586999999996 0 0 0
1546 2 6 1.05 21.281177999999997 16.11944 -6.101587000000013 0 0 0
7 2 7 1.575 2.201177999999998 3.3994399999999976 -29.421587 0 0 0
1589 2 6 1.05 19.161177999999996 18.23944 -6.101587000000013 0 0 0
6 0 8 -1.05 2.1643429999999997 1.3162749999999996 -29.458421999999995 0 0 0
70 0 8 -1.05 2.238012999999998 5.4826039999999985 -29.384752000000002 0 0 0
1329 2 7 1.575 14.921178000000001 20.359439999999996 -8.221586999999996 0 0 0
1623 2 6 1.05 14.921178000000001 22.479439999999997 -6.101587000000013 0 0 0
1584 2 6 1.05 17.041178 20.359439999999996 -6.101587000000013 0 0 0
1296 2 7 1.575 19.161177999999996 16.11944 -8.221586999999996 0 0 0
301 0 8 -1.05 0.04434300000000016 24.636275 -29.384752000000002 0 0 0
1381 1 7 1.575 20.221178 21.419439999999998 -7.161587000000008 0 0 0
4 0 8 -1.05 0.11801300000000006 3.3626049999999994 -29.458421999999995 0 0 0
11 0 8 -1.05 4.284341999999999 3.4362749999999975 -29.384752000000002 0 0 0
1594 1 7 1.575 22.341178 19.29944 -5.0415870000000105 0 0 0
1627 1 7 1.575 18.101178 23.53944 -5.0415870000000105 0 0 0
1330 1 7 1.575 15.981178 17.17944 -7.161587000000008 0 0 0
60 0 8 -1.05 23.438013 1.2426049999999997 -29.384752000000002 0 0 0
1382 0 8 -1.05 21.244342 22.442604 -10.378423000000009 0 0 0
1339 0 8 -1.05 21.318012999999997 20.322605 -8.258421999999992 0 0 0
1072 0 8 -1.05 14.958013000000001 18.202605 -12.424752000000002 0 0 0
314 0 8 -1.05 4.358012999999998 24.562605 -29.458421999999995 0 0 0
1338 0 8 -1.05 21.318012999999997 18.276275 -10.304751999999997 0 0 0
116 0 8 -1.05 23.364343 5.556274999999998 -29.458421999999995 0 0 0
1377 0 8 -1.05 19.124343 22.516274999999997 -8.258421999999992 0 0 0
75 1 7 1.575 5.381177999999999 6.579439999999999 -26.241587 0 0 0
10 1 7 1.575 3.2611779999999992 0.21943999999999877 -28.361587000000004 0 0 0
120 1 7 1.575 24.461178 4.459439999999999 -28.361587000000004 0 0 0
5 1 7 1.575 1.1411780000000002 2.3394399999999997 -26.241587 0 0 0
13 2 6 1.05 4.321177999999998 3.3994399999999976 -27.301587 0 0 0
58 2 6 1.05 23.401178 1.2794399999999997 -27.301587 0 0 0
68 2 6 1.05 2.201177999999998 5.519439999999998 -27.301587 0 0 0
303 2 6 1.05 0.08117800000000011 24.59944 -27.301587 0 0 0
1 0 8 -1.05 0.04434300000000016 1.2426049999999997 -27.338423000000002 0 0 0
9 0 8 -1.05 2.238012999999998 3.4362749999999975 -27.338423000000002 0 0 0
64 0 8 -1.05 0.11801300000000006 5.556274999999998 -27.264751999999998 0 0 0
359 0 8 -1.05 23.438013 24.636275 -27.338423000000002 0 0 0
66 0 8 -1.05 2.1643429999999997 5.556274999999998 -25.218422 0 0 0
14 0 8 -1.05 4.358012999999998 1.3162749999999996 -27.264751999999998 0 0 0
15 0 8 -1.05 4.358012999999998 3.3626049999999994 -25.218422 0 0 0
71 0 8 -1.05 4.284341999999999 5.4826039999999985 -27.338423000000002 0 0 0
402 1 7 1.575 24.461178 0.21943999999999877 -24.121587 0 0 0
405 1 7 1.575 1.1411780000000002 6.579439999999999 -22.001587000000004 0 0 0
371 1 7 1.575 5.381177999999999 2.3394399999999997 -22.001587000000004 0 0 0
408 1 7 1.575 3.2611779999999992 4.459439999999999 -24.121587 0 0 0
309 2 6 1.05 2.201177999999998 24.59944 -25.181586999999997 0 0 0
361 2 6 1.05 0.08117800000000011 1.2794399999999997 -20.941586999999995 0 0 0
409 2 6 1.05 4.321177999999998 5.519439999999998 -20.941586999999995 0 0 0
362 2 6 1.05 0.08117800000000011 3.3994399999999976 -23.061587 0 0 0
443 2 6 1.05 23.401178 5.519439999999998 -23.061587 0 0 0
59 2 7 1.575 23.401178 3.3994399999999976 -25.181586999999997 0 0 0
367 2 7 1.575 2.201177999999998 1.2794399999999997 -23.061587 0 0 0
578 2 6 1.05 4.321177999999998 24.59944 -23.061587 0 0 0
612 2 7 1.575 23.401178 24.59944 -20.941586999999995 0 0 0
12 2 7 1.575 4.321177999999998 1.2794399999999997 -25.181586999999997 0 0 0
62 2 7 1.575 0.08117800000000011 5.519439999999998 -25.181586999999997 0 0 0
368 2 7 1.575 2.201177999999998 3.3994399999999976 -20.941586999999995 0 0 0
312 0 8 -1.05 4.284341999999999 24.636275 -25.144751999999993 0 0 0
365 0 8 -1.05 2.1643429999999997 1.3162749999999996 -20.978422 0 0 0
406 0 8 -1.05 2.238012999999998 5.4826039999999985 -20.904752 0 0 0
401 0 8 -1.05 23.438013 3.4362749999999975 -23.098421999999996 0 0 0
411 0 8 -1.05 4.358012999999998 5.556274999999998 -23.024752000000003 0 0 0
118 0 8 -1.05 23.438013 5.4826039999999985 -25.144751999999993 0 0 0
366 0 8 -1.05 2.1643429999999997 3.3626049999999994 -23.024752000000003 0 0 0
572 0 8 -1.05 0.04434300000000016 24.636275 -20.904752 0 0 0
369 0 8 -1.05 4.284341999999999 1.2426049999999997 -23.098421999999996 0 0 0
364 0 8 -1.05 0.11801300000000006 3.3626049999999994 -20.978422 0 0 0
370 0 8 -1.05 4.284341999999999 3.4362749999999975 -20.904752 0 0 0
8 0 8 -1.05 2.238012999999998 1.2426049999999997 -25.144751999999993 0 0 0
403 0 8 -1.05 0.04434300000000016 5.4826039999999985 -23.098421999999996 0 0 0
575 0 8 -1.05 2.238012999999998 24.636275 -23.098421999999996 0 0 0
400 0 8 -1.05 23.438013 1.2426049999999997 -20.904752 0 0 0
2 0 8 -1.05 0.04434300000000016 3.4362749999999975 -25.144751999999993 0 0 0
363 0 8 -1.05 0.11801300000000006 1.3162749999999996 -23.024752000000003 0 0 0
305 0 8 -1.05 0.11801300000000006 24.562605 -25.218422 0 0 0
307 0 8 -1.05 2.1643429999999997 24.562605 -27.264751999999998 0 0 0
580 0 8 -1.05 4.358012999999998 24.562605 -20.978422 0 0 0
57 0 8 -1.05 23.364343 3.3626049999999994 -27.264751999999998 0 0 0
56 0 8 -1.05 23.364343 1.3162749999999996 -25.218422 0 0 0
441 0 8 -1.05 23.364343 5.556274999999998 -20.978422 0 0 0
610 0 8 -1.05 23.364343 24.562605 -23.024752000000003 0 0 0
665 1 7 1.575 5.381177999999999 6.579439999999999 -17.761587000000002 0 0 0
618 1 7 1.575 3.2611779999999992 0.21943999999999877 -19.881586999999993 0 0 0
696 1 7 1.575 24.461178 4.459439999999999 -19.881586999999993 0 0 0
615 1 7 1.575 1.1411780000000002 2.3394399999999997 -17.761587000000002 0 0 0
620 2 6 1.05 4.321177999999998 3.3994399999999976 -18.821587000000005 0 0 0
653 2 6 1.05 23.401178 1.2794399999999997 -18.821587000000005 0 0 0
661 2 7 1.575 2.201177999999998 5.519439999999998 -18.821587000000005 0 0 0
824 2 7 1.575 0.08117800000000011 24.59944 -18.821587000000005 0 0 0
613 0 8 -1.05 0.04434300000000016 1.2426049999999997 -18.858423000000005 0 0 0
617 0 8 -1.05 2.238012999999998 3.4362749999999975 -18.858423000000005 0 0 0
657 0 8 -1.05 0.11801300000000006 5.556274999999998 -18.784752000000008 0 0 0
863 0 8 -1.05 23.438013 24.636275 -18.858423000000005 0 0 0
659 0 8 -1.05 2.1643429999999997 5.556274999999998 -16.738422000000003 0 0 0
621 0 8 -1.05 4.358012999999998 1.3162749999999996 -18.784752000000008 0 0 0
622 0 8 -1.05 4.358012999999998 3.3626049999999994 -16.738422000000003 0 0 0
663 0 8 -1.05 4.284341999999999 5.4826039999999985 -18.858423000000005 0 0 0
909 1 7 1.575 24.461178 0.21943999999999877 -15.641586999999998 0 0 0
912 1 7 1.575 1.1411780000000002 6.579439999999999 -13.521587000000004 0 0 0
876 1 7 1.575 5.381177999999999 2.3394399999999997 -13.521587000000004 0 0 0
915 1 7 1.575 3.2611779999999992 4.459439999999999 -15.641586999999998 0 0 0
830 2 7 1.575 2.201177999999998 24.59944 -16.701587 0 0 0
866 2 6 1.05 0.08117800000000011 3.3994399999999976 -14.581587000000003 0 0 0
952 2 7 1.575 23.401178 5.519439999999998 -14.581587000000003 0 0 0
654 2 6 1.05 23.401178 3.3994399999999976 -16.701587 0 0 0
871 2 7 1.575 2.201177999999998 1.2794399999999997 -14.581587000000003 0 0 0
1097 2 6 1.05 4.321177999999998 24.59944 -14.581587000000003 0 0 0
619 2 6 1.05 4.321177999999998 1.2794399999999997 -16.701587 0 0 0
655 2 7 1.575 0.08117800000000011 5.519439999999998 -16.701587 0 0 0
832 0 8 -1.05 4.284341999999999 24.636275 -16.664751999999996 0 0 0
869 0 8 -1.05 2.1643429999999997 1.3162749999999996 -12.498421999999998 0 0 0
908 0 8 -1.05 23.438013 3.4362749999999975 -14.618421999999995 0 0 0
918 0 8 -1.05 4.358012999999998 5.556274999999998 -14.544752000000003 0 0 0
694 0 8 -1.05 23.438013 5.4826039999999985 -16.664751999999996 0 0 0
870 0 8 -1.05 2.1643429999999997 3.3626049999999994 -14.544752000000003 0 0 0
874 0 8 -1.05 4.284341999999999 1.2426049999999997 -14.618421999999995 0 0 0
868 0 8 -1.05 0.11801300000000006 3.3626049999999994 -12.498421999999998 0 0 0
616 0 8 -1.05 2.238012999999998 1.2426049999999997 -16.664751999999996 0 0 0
910 0 8 -1.05 0.04434300000000016 5.4826039999999985 -14.618421999999995 0 0 0
1094 0 8 -1.05 2.238012999999998 24.636275 -14.618421999999995 0 0 0
614 0 8 -1.05 0.04434300000000016 3.4362749999999975 -16.664751999999996 0 0 0
867 0 8 -1.05 0.11801300000000006 1.3162749999999996 -14.544752000000003 0 0 0
826 0 8 -1.05 0.11801300000000006 24.562605 -16.738422000000003 0 0 0
828 0 8 -1.05 2.1643429999999997 24.562605 -18.784752000000008 0 0 0
1099 0 8 -1.05 4.358012999999998 24.562605 -12.498421999999998 0 0 0
652 0 8 -1.05 23.364343 3.3626049999999994 -18.784752000000008 0 0 0
651 0 8 -1.05 23.364343 1.3162749999999996 -16.738422000000003 0 0 0
950 0 8 -1.05 23.364343 5.556274999999998 -12.498421999999998 0 0 0
1131 0 8 -1.05 23.364343 24.562605 -14.544752000000003 0 0 0
1188 1 7 1.575 5.381177999999999 6.579439999999999 -9.281586999999998 0 0 0
873 1 7 1.575 3.2611779999999992 0.21943999999999877 -11.401587000000003 0 0 0
954 1 7 1.575 24.461178 4.459439999999999 -11.401587000000003 0 0 0
1137 1 7 1.575 1.1411780000000002 2.3394399999999997 -9.281586999999998 0 0 0
865 2 6 1.05 0.08117800000000011 1.2794399999999997 -12.461587000000009 0 0 0
916 2 6 1.05 4.321177999999998 5.519439999999998 -12.461587000000009 0 0 0
1141 2 6 1.05 4.321177999999998 3.3994399999999976 -10.341587 0 0 0
1174 2 7 1.575 23.401178 1.2794399999999997 -10.341587 0 0 0
1183 2 7 1.575 2.201177999999998 5.519439999999998 -10.341587 0 0 0
1346 2 6 1.05 0.08117800000000011 24.59944 -10.341587 0 0 0
1133 2 7 1.575 23.401178 24.59944 -12.461587000000009 0 0 0
872 2 7 1.575 2.201177999999998 3.3994399999999976 -12.461587000000009 0 0 0
913 0 8 -1.05 2.238012999999998 5.4826039999999985 -12.424752000000002 0 0 0
1135 0 8 -1.05 0.04434300000000016 1.2426049999999997 -10.378423000000009 0 0 0
1139 0 8 -1.05 2.238012999999998 3.4362749999999975 -10.378423000000009 0 0 0
1091 0 8 -1.05 0.04434300000000016 24.636275 -12.424752000000002 0 0 0
1179 0 8 -1.05 0.11801300000000006 5.556274999999998 -10.304751999999997 0 0 0
1386 0 8 -1.05 23.438013 24.636275 -10.378423000000009 0 0 0
875 0 8 -1.05 4.284341999999999 3.4362749999999975 -12.424752000000002 0 0 0
1181 0 8 -1.05 2.1643429999999997 5.556274999999998 -8.258421999999992 0 0 0
1142 0 8 -1.05 4.358012999999998 1.3162749999999996 -10.304751999999997 0 0 0
907 0 8 -1.05 23.438013 1.2426049999999997 -12.424752000000002 0 0 0
1143 0 8 -1.05 4.358012999999998 3.3626049999999994 -8.258421999999992 0 0 0
1186 0 8 -1.05 4.284341999999999 5.4826039999999985 -10.378423000000009 0 0 0
1176 1 7 1.575 24.461178 0.21943999999999877 -7.161587000000008 0 0 0
1431 1 7 1.575 1.1411780000000002 6.579439999999999 -5.0415870000000105 0 0 0
1398 1 7 1.575 5.381177999999999 2.3394399999999997 -5.0415870000000105 0 0 0
1185 1 7 1.575 3.2611779999999992 4.459439999999999 -7.161587000000008 0 0 0
1352 2 7 1.575 2.201177999999998 24.59944 -8.221586999999996 0 0 0
1388 2 7 1.575 0.08117800000000011 3.3994399999999976 -6.101587000000013 0 0 0
1469 2 7 1.575 23.401178 5.519439999999998 -6.101587000000013 0 0 0
1175 2 6 1.05 23.401178 3.3994399999999976 -8.221586999999996 0 0 0
1393 2 6 1.05 2.201177999999998 1.2794399999999997 -6.101587000000013 0 0 0
1602 2 6 1.05 4.321177999999998 24.59944 -6.101587000000013 0 0 0
1140 2 7 1.575 4.321177999999998 1.2794399999999997 -8.221586999999996 0 0 0
1177 2 6 1.05 0.08117800000000011 5.519439999999998 -8.221586999999996 0 0 0
1355 0 8 -1.05 4.284341999999999 24.636275 -8.184752000000007 0 0 0
1428 0 8 -1.05 23.438013 3.4362749999999975 -6.138422000000009 0 0 0
1436 0 8 -1.05 4.358012999999998 5.556274999999998 -6.064752000000009 0 0 0
1217 0 8 -1.05 23.438013 5.4826039999999985 -8.184752000000007 0 0 0
1392 0 8 -1.05 2.1643429999999997 3.3626049999999994 -6.064752000000009 0 0 0
1396 0 8 -1.05 4.284341999999999 1.2426049999999997 -6.138422000000009 0 0 0
1138 0 8 -1.05 2.238012999999998 1.2426049999999997 -8.184752000000007 0 0 0
1430 0 8 -1.05 0.04434300000000016 5.4826039999999985 -6.138422000000009 0 0 0
1600 0 8 -1.05 2.238012999999998 24.636275 -6.138422000000009 0 0 0
1136 0 8 -1.05 0.04434300000000016 3.4362749999999975 -8.184752000000007 0 0 0
1390 0 8 -1.05 0.11801300000000006 1.3162749999999996 -6.064752000000009 0 0 0
1348 0 8 -1.05 0.11801300000000006 24.562605 -8.258421999999992 0 0 0
1350 0 8 -1.05 2.1643429999999997 24.562605 -10.304751999999997 0 0 0
1173 0 8 -1.05 23.364343 3.3626049999999994 -10.304751999999997 0 0 0
1172 0 8 -1.05 23.364343 1.3162749999999996 -8.258421999999992 0 0 0
1635 0 8 -1.05 23.364343 24.562605 -6.064752000000009 0 0 0
1085 0 8 -1.05 21.244342 20.396275 -12.424752000000002 0 0 0
1288 0 8 -1.05 14.958013000000001 16.156275 -10.378423000000009 0 0 0
1375 0 8 -1.05 17.078013 22.516274999999997 -10.304751999999997 0 0 0
1031 0 8 -1.05 17.004343 16.156275 -12.424752000000002 0 0 0
1335 0 8 -1.05 19.198013 20.396275 -10.378423000000009 0 0 0
1331 0 8 -1.05 17.004343 18.202605 -10.378423000000009 0 0 0
1123 0 8 -1.05 19.198013 22.442604 -12.424752000000002 0 0 0
1082 2 7 1.575 19.161177999999996 20.359439999999996 -12.461587000000009 0 0 0
1028 2 6 1.05 14.921178000000001 16.11944 -12.461587000000009 0 0 0
1290 2 6 1.05 17.041178 16.11944 -10.341587 0 0 0
1379 2 7 1.575 19.161177999999996 22.479439999999997 -10.341587 0 0 0
1328 2 7 1.575 14.921178000000001 18.23944 -10.341587 0 0 0
1337 2 6 1.05 21.281177999999997 20.359439999999996 -10.341587 0 0 0
1126 2 6 1.05 21.281177999999997 22.479439999999997 -12.461587000000009 0 0 0
1075 2 7 1.575 17.041178 18.23944 -12.461587000000009 0 0 0
1333 1 7 1.575 18.101178 19.29944 -9.281586999999998 0 0 0
1119 1 7 1.575 15.981178 21.419439999999998 -11.401587000000003 0 0 0
1083 1 7 1.575 20.221178 17.17944 -11.401587000000003 0 0 0
1384 1 7 1.575 22.341178 23.53944 -9.281586999999998 0 0 0
1294 0 8 -1.05 19.124343 16.082604999999997 -10.304751999999997 0 0 0
1292 0 8 -1.05 17.078013 16.082604999999997 -8.258421999999992 0 0 0
1326 0 8 -1.05 14.884342999999998 18.276275 -8.258421999999992 0 0 0
1327 0 8 -1.05 14.884342999999998 20.322605 -10.304751999999997 0 0 0
1536 0 8 -1.05 14.884342999999998 16.082604999999997 -6.064752000000009 0 0 0
1077 0 8 -1.05 17.078013 18.276275 -14.544752000000003 0 0 0
810 0 8 -1.05 17.004343 20.396275 -16.664751999999996 0 0 0
1034 0 8 -1.05 19.198013 16.156275 -14.618421999999995 0 0 0
1120 0 8 -1.05 17.004343 22.442604 -14.618421999999995 0 0 0
812 0 8 -1.05 19.198013 18.202605 -16.664751999999996 0 0 0
1078 0 8 -1.05 17.078013 20.322605 -12.498421999999998 0 0 0
1084 0 8 -1.05 21.244342 18.202605 -14.618421999999995 0 0 0
1080 0 8 -1.05 19.124343 20.322605 -14.544752000000003 0 0 0
848 0 8 -1.05 14.958013000000001 22.442604 -16.664751999999996 0 0 0
1128 0 8 -1.05 21.318012999999997 22.516274999999997 -14.544752000000003 0 0 0
1073 0 8 -1.05 14.958013000000001 20.396275 -14.618421999999995 0 0 0
1079 0 8 -1.05 19.124343 18.276275 -12.498421999999998 0 0 0
776 0 8 -1.05 21.244342 16.156275 -16.664751999999996 0 0 0
851 2 7 1.575 17.041178 22.479439999999997 -16.701587 0 0 0
815 2 7 1.575 21.281177999999997 18.23944 -16.701587 0 0 0
1037 2 6 1.05 21.281177999999997 16.11944 -14.581587000000003 0 0 0
1081 2 6 1.05 19.161177999999996 18.23944 -14.581587000000003 0 0 0
808 2 7 1.575 14.921178000000001 20.359439999999996 -16.701587 0 0 0
1117 2 6 1.05 14.921178000000001 22.479439999999997 -14.581587000000003 0 0 0
1076 2 6 1.05 17.041178 20.359439999999996 -14.581587000000003 0 0 0
774 2 7 1.575 19.161177999999996 16.11944 -16.701587 0 0 0
1125 1 7 1.575 20.221178 21.419439999999998 -15.641586999999998 0 0 0
1086 1 7 1.575 22.341178 19.29944 -13.521587000000004 0 0 0
1122 1 7 1.575 18.101178 23.53944 -13.521587000000004 0 0 0
1074 1 7 1.575 15.981178 17.17944 -15.641586999999998 0 0 0
859 0 8 -1.05 21.244342 22.442604 -18.858423000000005 0 0 0
818 0 8 -1.05 21.318012999999997 20.322605 -16.738422000000003 0 0 0
817 0 8 -1.05 21.318012999999997 18.276275 -18.784752000000008 0 0 0
855 0 8 -1.05 19.124343 22.516274999999997 -16.738422000000003 0 0 0
765 0 8 -1.05 14.958013000000001 16.156275 -18.858423000000005 0 0 0
853 0 8 -1.05 17.078013 22.516274999999997 -18.784752000000008 0 0 0
813 0 8 -1.05 19.198013 20.396275 -18.858423000000005 0 0 0
809 0 8 -1.05 17.004343 18.202605 -18.858423000000005 0 0 0
768 2 7 1.575 17.041178 16.11944 -18.821587000000005 0 0 0
857 2 6 1.05 19.161177999999996 22.479439999999997 -18.821587000000005 0 0 0
807 2 6 1.05 14.921178000000001 18.23944 -18.821587000000005 0 0 0
816 2 6 1.05 21.281177999999997 20.359439999999996 -18.821587000000005 0 0 0
811 1 7 1.575 18.101178 19.29944 -17.761587000000002 0 0 0
850 1 7 1.575 15.981178 21.419439999999998 -19.881586999999993 0 0 0
814 1 7 1.575 20.221178 17.17944 -19.881586999999993 0 0 0
861 1 7 1.575 22.341178 23.53944 -17.761587000000002 0 0 0
1039 0 8 -1.05 21.318012999999997 16.082604999999997 -12.498421999999998 0 0 0
772 0 8 -1.05 19.124343 16.082604999999997 -18.784752000000008 0 0 0
770 0 8 -1.05 17.078013 16.082604999999997 -16.738422000000003 0 0 0
1115 0 8 -1.05 14.884342999999998 22.516274999999997 -12.498421999999998 0 0 0
805 0 8 -1.05 14.884342999999998 18.276275 -16.738422000000003 0 0 0
806 0 8 -1.05 14.884342999999998 20.322605 -18.784752000000008 0 0 0
1026 0 8 -1.05 14.884342999999998 16.082604999999997 -14.544752000000003 0 0 0
559 0 8 -1.05 17.078013 18.276275 -23.024752000000003 0 0 0
282 0 8 -1.05 17.004343 20.396275 -25.144751999999993 0 0 0
554 0 8 -1.05 14.958013000000001 18.202605 -20.904752 0 0 0
519 0 8 -1.05 19.198013 16.156275 -23.098421999999996 0 0 0
599 0 8 -1.05 17.004343 22.442604 -23.098421999999996 0 0 0
288 0 8 -1.05 19.198013 18.202605 -25.144751999999993 0 0 0
566 0 8 -1.05 21.244342 20.396275 -20.904752 0 0 0
560 0 8 -1.05 17.078013 20.322605 -20.978422 0 0 0
565 0 8 -1.05 21.244342 18.202605 -23.098421999999996 0 0 0
516 0 8 -1.05 17.004343 16.156275 -20.904752 0 0 0
562 0 8 -1.05 19.124343 20.322605 -23.024752000000003 0 0 0
338 0 8 -1.05 14.958013000000001 22.442604 -25.144751999999993 0 0 0
607 0 8 -1.05 21.318012999999997 22.516274999999997 -23.024752000000003 0 0 0
555 0 8 -1.05 14.958013000000001 20.396275 -23.098421999999996 0 0 0
602 0 8 -1.05 19.198013 22.442604 -20.904752 0 0 0
561 0 8 -1.05 19.124343 18.276275 -20.978422 0 0 0
232 0 8 -1.05 21.244342 16.156275 -25.144751999999993 0 0 0
564 2 7 1.575 19.161177999999996 20.359439999999996 -20.941586999999995 0 0 0
342 2 7 1.575 17.041178 22.479439999999997 -25.181586999999997 0 0 0
292 2 6 1.05 21.281177999999997 18.23944 -25.181586999999997 0 0 0
514 2 7 1.575 14.921178000000001 16.11944 -20.941586999999995 0 0 0
522 2 6 1.05 21.281177999999997 16.11944 -23.061587 0 0 0
563 2 7 1.575 19.161177999999996 18.23944 -23.061587 0 0 0
279 2 6 1.05 14.921178000000001 20.359439999999996 -25.181586999999997 0 0 0
597 2 7 1.575 14.921178000000001 22.479439999999997 -23.061587 0 0 0
74 0 8 -1.05 4.358012999999998 7.602605 -29.458421999999995 0 0 0
558 2 6 1.05 17.041178 20.359439999999996 -23.061587 0 0 0
605 2 7 1.575 21.281177999999997 22.479439999999997 -20.941586999999995 0 0 0
557 2 6 1.05 17.041178 18.23944 -20.941586999999995 0 0 0
229 2 7 1.575 19.161177999999996 16.11944 -25.181586999999997 0 0 0
604 1 7 1.575 20.221178 21.419439999999998 -24.121587 0 0 0
567 1 7 1.575 22.341178 19.29944 -22.001587000000004 0 0 0
601 1 7 1.575 18.101178 23.53944 -22.001587000000004 0 0 0
123 2 7 1.575 0.08117800000000011 9.759440000000001 -29.421587 0 0 0
193 2 7 1.575 4.321177999999998 13.999439999999996 -29.421587 0 0 0
556 1 7 1.575 15.981178 17.17944 -24.121587 0 0 0
351 0 8 -1.05 21.244342 22.442604 -27.338423000000002 0 0 0
295 0 8 -1.05 21.318012999999997 20.322605 -25.218422 0 0 0
294 0 8 -1.05 21.318012999999997 18.276275 -27.264751999999998 0 0 0
346 0 8 -1.05 19.124343 22.516274999999997 -25.218422 0 0 0
117 2 7 1.575 23.401178 7.63944 -29.421587 0 0 0
219 0 8 -1.05 14.958013000000001 16.156275 -27.338423000000002 0 0 0
344 0 8 -1.05 17.078013 22.516274999999997 -27.264751999999998 0 0 0
127 2 7 1.575 2.201177999999998 11.879439999999999 -29.421587 0 0 0
289 0 8 -1.05 19.198013 20.396275 -27.338423000000002 0 0 0
126 0 8 -1.05 2.1643429999999997 9.796275000000001 -29.458421999999995 0 0 0
190 0 8 -1.05 2.238012999999998 13.962603999999999 -29.384752000000002 0 0 0
281 0 8 -1.05 17.004343 18.202605 -27.338423000000002 0 0 0
223 2 6 1.05 17.041178 16.11944 -27.301587 0 0 0
348 2 6 1.05 19.161177999999996 22.479439999999997 -27.301587 0 0 0
278 2 6 1.05 14.921178000000001 18.23944 -27.301587 0 0 0
61 0 8 -1.05 0.04434300000000016 7.6762749999999995 -29.384752000000002 0 0 0
293 2 6 1.05 21.281177999999997 20.359439999999996 -27.301587 0 0 0
124 0 8 -1.05 0.11801300000000006 11.842604999999999 -29.458421999999995 0 0 0
131 0 8 -1.05 4.284341999999999 11.916274999999999 -29.384752000000002 0 0 0
285 1 7 1.575 18.101178 19.29944 -26.241587 0 0 0
340 1 7 1.575 15.981178 21.419439999999998 -28.361587000000004 0 0 0
290 1 7 1.575 20.221178 17.17944 -28.361587000000004 0 0 0
180 0 8 -1.05 23.438013 9.722605000000001 -29.384752000000002 0 0 0
355 1 7 1.575 22.341178 23.53944 -26.241587 0 0 0
524 0 8 -1.05 21.318012999999997 16.082604999999997 -20.978422 0 0 0
227 0 8 -1.05 19.124343 16.082604999999997 -27.264751999999998 0 0 0
225 0 8 -1.05 17.078013 16.082604999999997 -25.218422 0 0 0
236 0 8 -1.05 23.364343 14.036274999999996 -29.458421999999995 0 0 0
65 0 8 -1.05 0.11801300000000006 7.602605 -25.218422 0 0 0
67 0 8 -1.05 2.1643429999999997 7.602605 -27.264751999999998 0 0 0
412 0 8 -1.05 4.358012999999998 7.602605 -20.978422 0 0 0
195 1 7 1.575 5.381177999999999 15.059439999999999 -26.241587 0 0 0
130 1 7 1.575 3.2611779999999992 8.69944 -28.361587000000004 0 0 0
240 1 7 1.575 24.461178 12.939439999999998 -28.361587000000004 0 0 0
125 1 7 1.575 1.1411780000000002 10.81944 -26.241587 0 0 0
133 2 7 1.575 4.321177999999998 11.879439999999999 -27.301587 0 0 0
178 2 7 1.575 23.401178 9.759440000000001 -27.301587 0 0 0
188 2 6 1.05 2.201177999999998 13.999439999999996 -27.301587 0 0 0
63 2 6 1.05 0.08117800000000011 7.63944 -27.301587 0 0 0
121 0 8 -1.05 0.04434300000000016 9.722605000000001 -27.338423000000002 0 0 0
129 0 8 -1.05 2.238012999999998 11.916274999999999 -27.338423000000002 0 0 0
184 0 8 -1.05 0.11801300000000006 14.036274999999996 -27.264751999999998 0 0 0
119 0 8 -1.05 23.438013 7.6762749999999995 -27.338423000000002 0 0 0
186 0 8 -1.05 2.1643429999999997 14.036274999999996 -25.218422 0 0 0
134 0 8 -1.05 4.358012999999998 9.796275000000001 -27.264751999999998 0 0 0
135 0 8 -1.05 4.358012999999998 11.842604999999999 -25.218422 0 0 0
191 0 8 -1.05 4.284341999999999 13.962603999999999 -27.338423000000002 0 0 0
486 1 7 1.575 24.461178 8.69944 -24.121587 0 0 0
489 1 7 1.575 1.1411780000000002 15.059439999999999 -22.001587000000004 0 0 0
455 1 7 1.575 5.381177999999999 10.81944 -22.001587000000004 0 0 0
492 1 7 1.575 3.2611779999999992 12.939439999999998 -24.121587 0 0 0
69 2 7 1.575 2.201177999999998 7.63944 -25.181586999999997 0 0 0
445 2 7 1.575 0.08117800000000011 9.759440000000001 -20.941586999999995 0 0 0
493 2 7 1.575 4.321177999999998 13.999439999999996 -20.941586999999995 0 0 0
446 2 6 1.05 0.08117800000000011 11.879439999999999 -23.061587 0 0 0
527 2 7 1.575 23.401178 13.999439999999996 -23.061587 0 0 0
179 2 6 1.05 23.401178 11.879439999999999 -25.181586999999997 0 0 0
451 2 7 1.575 2.201177999999998 9.759440000000001 -23.061587 0 0 0
410 2 6 1.05 4.321177999999998 7.63944 -23.061587 0 0 0
444 2 7 1.575 23.401178 7.63944 -20.941586999999995 0 0 0
132 2 6 1.05 4.321177999999998 9.759440000000001 -25.181586999999997 0 0 0
182 2 7 1.575 0.08117800000000011 13.999439999999996 -25.181586999999997 0 0 0
452 2 6 1.05 2.201177999999998 11.879439999999999 -20.941586999999995 0 0 0
72 0 8 -1.05 4.284341999999999 7.6762749999999995 -25.144751999999993 0 0 0
449 0 8 -1.05 2.1643429999999997 9.796275000000001 -20.978422 0 0 0
490 0 8 -1.05 2.238012999999998 13.962603999999999 -20.904752 0 0 0
485 0 8 -1.05 23.438013 11.916274999999999 -23.098421999999996 0 0 0
495 0 8 -1.05 4.358012999999998 14.036274999999996 -23.024752000000003 0 0 0
238 0 8 -1.05 23.438013 13.962603999999999 -25.144751999999993 0 0 0
450 0 8 -1.05 2.1643429999999997 11.842604999999999 -23.024752000000003 0 0 0
404 0 8 -1.05 0.04434300000000016 7.6762749999999995 -20.904752 0 0 0
453 0 8 -1.05 4.284341999999999 9.722605000000001 -23.098421999999996 0 0 0
448 0 8 -1.05 0.11801300000000006 11.842604999999999 -20.978422 0 0 0
454 0 8 -1.05 4.284341999999999 11.916274999999999 -20.904752 0 0 0
128 0 8 -1.05 2.238012999999998 9.722605000000001 -25.144751999999993 0 0 0
487 0 8 -1.05 0.04434300000000016 13.962603999999999 -23.098421999999996 0 0 0
407 0 8 -1.05 2.238012999999998 7.6762749999999995 -23.098421999999996 0 0 0
484 0 8 -1.05 23.438013 9.722605000000001 -20.904752 0 0 0
122 0 8 -1.05 0.04434300000000016 11.916274999999999 -25.144751999999993 0 0 0
447 0 8 -1.05 0.11801300000000006 9.796275000000001 -23.024752000000003 0 0 0
442 0 8 -1.05 23.364343 7.602605 -23.024752000000003 0 0 0
177 0 8 -1.05 23.364343 11.842604999999999 -27.264751999999998 0 0 0
176 0 8 -1.05 23.364343 9.796275000000001 -25.218422 0 0 0
525 0 8 -1.05 23.364343 14.036274999999996 -20.978422 0 0 0
658 0 8 -1.05 0.11801300000000006 7.602605 -16.738422000000003 0 0 0
660 0 8 -1.05 2.1643429999999997 7.602605 -18.784752000000008 0 0 0
919 0 8 -1.05 4.358012999999998 7.602605 -12.498421999999998 0 0 0
749 1 7 1.575 5.381177999999999 15.059439999999999 -17.761587000000002 0 0 0
702 1 7 1.575 3.2611779999999992 8.69944 -19.881586999999993 0 0 0
780 1 7 1.575 24.461178 12.939439999999998 -19.881586999999993 0 0 0
699 1 7 1.575 1.1411780000000002 10.81944 -17.761587000000002 0 0 0
704 2 7 1.575 4.321177999999998 11.879439999999999 -18.821587000000005 0 0 0
737 2 6 1.05 23.401178 9.759440000000001 -18.821587000000005 0 0 0
745 2 6 1.05 2.201177999999998 13.999439999999996 -18.821587000000005 0 0 0
656 2 6 1.05 0.08117800000000011 7.63944 -18.821587000000005 0 0 0
697 0 8 -1.05 0.04434300000000016 9.722605000000001 -18.858423000000005 0 0 0
701 0 8 -1.05 2.238012999999998 11.916274999999999 -18.858423000000005 0 0 0
741 0 8 -1.05 0.11801300000000006 14.036274999999996 -18.784752000000008 0 0 0
695 0 8 -1.05 23.438013 7.6762749999999995 -18.858423000000005 0 0 0
743 0 8 -1.05 2.1643429999999997 14.036274999999996 -16.738422000000003 0 0 0
705 0 8 -1.05 4.358012999999998 9.796275000000001 -18.784752000000008 0 0 0
706 0 8 -1.05 4.358012999999998 11.842604999999999 -16.738422000000003 0 0 0
747 0 8 -1.05 4.284341999999999 13.962603999999999 -18.858423000000005 0 0 0
999 1 7 1.575 24.461178 8.69944 -15.641586999999998 0 0 0
1002 1 7 1.575 1.1411780000000002 15.059439999999999 -13.521587000000004 0 0 0
966 1 7 1.575 5.381177999999999 10.81944 -13.521587000000004 0 0 0
1005 1 7 1.575 3.2611779999999992 12.939439999999998 -15.641586999999998 0 0 0
662 2 6 1.05 2.201177999999998 7.63944 -16.701587 0 0 0
956 2 6 1.05 0.08117800000000011 11.879439999999999 -14.581587000000003 0 0 0
1042 2 6 1.05 23.401178 13.999439999999996 -14.581587000000003 0 0 0
738 2 7 1.575 23.401178 11.879439999999999 -16.701587 0 0 0
961 2 7 1.575 2.201177999999998 9.759440000000001 -14.581587000000003 0 0 0
917 2 6 1.05 4.321177999999998 7.63944 -14.581587000000003 0 0 0
703 2 7 1.575 4.321177999999998 9.759440000000001 -16.701587 0 0 0
739 2 7 1.575 0.08117800000000011 13.999439999999996 -16.701587 0 0 0
664 0 8 -1.05 4.284341999999999 7.6762749999999995 -16.664751999999996 0 0 0
959 0 8 -1.05 2.1643429999999997 9.796275000000001 -12.498421999999998 0 0 0
998 0 8 -1.05 23.438013 11.916274999999999 -14.618421999999995 0 0 0
1008 0 8 -1.05 4.358012999999998 14.036274999999996 -14.544752000000003 0 0 0
778 0 8 -1.05 23.438013 13.962603999999999 -16.664751999999996 0 0 0