LAMMPS data file via write_data, version 17 Feb 2022, timestep = 200

4320 atoms
10 atom types
144 bonds
6 bond types
216 angles
6 angle types
0 dihedrals
2 dihedral types
36 impropers
2 improper types

0.239999 25.679999000000002 xlo xhi
0.239999 25.679999000000002 ylo yhi
-32.391176 66.805898 zlo zhi

Masses

1 12.011
2 1.008
3 15.9994
4 15.9994
5 1.008
6 55.845
7 55.845
8 15.9994
9 15.9994
10 1.008

Pair Coeffs # lj/cut/coul/cut

1 0.0988 3.31521
2 0.0161 2.4473
3 0.1463 3.04812
4 0.093 3.24287
5 0.0047 0.537925
6 9.0298e-07 4.9062
7 9.0298e-07 4.9062
8 0.1554 3.16554
9 0.1554 3.16554
10 0 0

Bond Coeffs # harmonic

1 361.8 1.105
2 652.57 1.218
3 383.13 1.351
4 563.51 0.973
5 554.135 1
6 0 2.08

Angle Coeffs # harmonic

1 51.617 106.55
2 65.93 123.65
3 65.262 109.49
4 115.745 122.1
5 118.817 130.25
6 30 109.47

Dihedral Coeffs # fourier

1 1 2.3 2 180
2 2 2.3 2 180 1.9 1 0

Improper Coeffs # cvff

1 10.5 -1 2
2 10.5 -1 2

Atoms # full

25 1 8 -1.05 23.438013 12.962605 -16.74947126245 -1 0 0
33 1 8 -1.05 4.284343 6.676275 -16.74947126245 0 0 0
45 1 8 -1.05 25.484343000000003 10.916274999999999 -16.74947126245 -1 0 0
54 1 8 -1.05 2.2380129999999996 8.722605 -16.74947126245 0 0 0
57 1 7 1.575 22.341178 5.57944 -15.652636262450002 -1 0 0
63 1 6 1.575 1.141178 9.81944 -15.652636262450002 0 0 0
65 1 7 1.575 25.521178 4.5194399999999995 -16.712636262450005 -1 0 0
69 1 7 1.575 23.401178 8.75944 -14.592636262450007 -1 0 0
70 1 7 1.575 21.281178 10.879439999999999 -14.592636262450007 -1 0 0
72 1 7 1.575 21.281178 8.75944 -16.712636262450005 -1 0 0
73 1 7 1.575 25.521178 6.63944 -14.592636262450007 -1 0 0
76 1 7 1.575 2.2011779999999996 4.5194399999999995 -14.592636262450007 0 0 0
78 1 7 1.575 2.2011779999999996 6.63944 -16.712636262450005 0 0 0
79 1 7 1.575 23.401178 10.879439999999999 -16.712636262450005 -1 0 0
82 1 9 -1 2.1643419999999995 4.556274999999999 -16.67580126245 0 0 0
86 1 8 -1.05 21.318013 8.796275 -14.629471262450004 -1 0 0
87 1 8 -1.05 2.2380129999999996 10.916274999999999 -14.555801262450004 0 0 0
90 1 8 -1.05 21.318013 10.842604 -16.67580126245 -1 0 0
91 1 8 -1.05 25.484343000000003 8.722605 -14.555801262450004 -1 0 0
96 1 8 -1.05 2.1643419999999995 6.602605 -14.629471262450004 0 0 0
97 1 8 -1.05 4.284343 12.962605 -14.555801262450004 0 0 0
102 1 8 -1.05 25.558013000000003 6.602605 -16.67580126245 -1 0 0
104 1 8 -1.05 23.364343 10.842604 -14.629471262450004 -1 0 0
105 1 8 -1.05 25.558013000000003 4.556274999999999 -14.629471262450004 -1 0 0
109 1 9 -1 23.364343 8.796275 -16.67580126245 -1 0 0
111 1 8 -1.05 23.438013 6.676275 -14.555801262450004 -1 0 0
466 0 1 0.731 24.460761 11.939022999999999 -19.291176 -1 0 0
467 0 2 -0.123 24.460761 11.939022999999999 -20.391176 -1 0 0
468 0 3 -0.804 25.520761 12.999023000000001 -18.591176000000004 -1 0 0
469 0 3 -0.804 23.400761000000003 10.879023 -18.591176000000004 -1 0 0
470 0 10 0.425 24.202761000000002 7.841023000000001 -17.456845 -1 0 0
476 0 1 0.731 3.438 7.678 -19.291176 0 0 0
477 0 2 -0.123 3.438 7.678 -20.391176 0 0 0
478 0 3 -0.804 4.498 8.738 -18.591176 0 0 0
479 0 3 -0.804 2.378 6.618 -18.591176 0 0 0
480 0 10 0.425 3.1799999999999997 3.58 -17.456845 0 0 0
58 1 6 1.575 3.2611779999999992 11.93944 -9.292636262450003 0 0 0
59 1 7 1.575 1.141178 5.57944 -11.41263626245 0 0 0
60 1 6 1.575 24.461178 11.93944 -13.532636262450005 -1 0 0
61 1 7 1.575 22.341178 9.81944 -11.41263626245 -1 0 0
62 1 7 1.575 3.2611779999999992 7.699439999999999 -13.532636262450005 0 0 0
64 1 7 1.575 24.461178 7.699439999999999 -9.292636262450003 -1 0 0
66 1 7 1.575 23.401178 6.63944 -12.472636262450003 -1 0 0
67 1 7 1.575 2.2011779999999996 10.879439999999999 -12.472636262450003 0 0 0
68 1 6 1.05 2.2011779999999996 8.75944 -10.352636262450005 0 0 0
71 1 6 1.05 21.281178 6.63944 -10.352636262450005 -1 0 0
74 1 6 1.05 25.521178 10.879439999999999 -10.352636262450005 -1 0 0
75 1 6 1.05 23.401178 4.5194399999999995 -10.352636262450005 -1 0 0
77 1 7 1.575 21.281178 4.5194399999999995 -12.472636262450003 -1 0 0
80 1 7 1.575 25.521178 8.75944 -12.472636262450003 -1 0 0
81 1 8 -1.05 23.438013 12.962605 -8.269472262450002 -1 0 0
83 1 8 -1.05 25.484343000000003 6.676275 -12.509471262449999 -1 0 0
84 1 8 -1.05 25.558013000000003 10.842604 -12.435801262450006 -1 0 0
85 1 8 -1.05 4.284343 8.722605 -10.315801262450002 0 0 0
88 1 8 -1.05 23.364343 6.602605 -10.389472262450006 -1 0 0
89 1 8 -1.05 4.284343 6.676275 -8.269472262450002 0 0 0
92 1 8 -1.05 25.558013000000003 8.796275 -10.389472262450006 -1 0 0
93 1 8 -1.05 2.2380129999999996 12.962605 -12.509471262449999 0 0 0
94 1 8 -1.05 23.364343 4.556274999999999 -12.435801262450006 -1 0 0
95 1 8 -1.05 23.438013 10.916274999999999 -10.315801262450002 -1 0 0
98 1 8 -1.05 21.318013 4.556274999999999 -10.389472262450006 -1 0 0
99 1 8 -1.05 23.438013 8.722605 -12.509471262449999 -1 0 0
100 1 8 -1.05 2.1643419999999995 8.796275 -12.435801262450006 0 0 0
101 1 8 -1.05 25.484343000000003 10.916274999999999 -8.269472262450002 -1 0 0
103 1 8 -1.05 2.2380129999999996 6.676275 -10.315801262450002 0 0 0
106 1 8 -1.05 25.484343000000003 12.962605 -10.315801262450002 -1 0 0
107 1 8 -1.05 21.318013 6.602605 -12.435801262450006 -1 0 0
108 1 8 -1.05 4.284343 10.916274999999999 -12.509471262449999 0 0 0
110 1 8 -1.05 2.2380129999999996 8.722605 -8.269472262450002 0 0 0
112 1 8 -1.05 2.1643419999999995 10.842604 -10.389472262450006 0 0 0
113 1 7 1.575 22.341178 5.57944 -7.172635262450008 -1 0 0
119 1 7 1.575 1.141178 9.81944 -7.172635262450008 0 0 0
121 1 7 1.575 25.521178 4.5194399999999995 -8.232637262450005 -1 0 0
128 1 7 1.575 21.281178 8.75944 -8.232637262450005 -1 0 0
134 1 7 1.575 2.2011779999999996 6.63944 -8.232637262450005 0 0 0
135 1 7 1.575 23.401178 10.879439999999999 -8.232637262450005 -1 0 0
138 1 8 -1.05 2.1643419999999995 4.556274999999999 -8.19580026245 0 0 0
146 1 8 -1.05 21.318013 10.842604 -8.19580026245 -1 0 0
158 1 8 -1.05 25.558013000000003 6.602605 -8.19580026245 -1 0 0
165 1 8 -1.05 23.364343 8.796275 -8.19580026245 -1 0 0
114 1 6 1.575 3.2611779999999992 11.93944 -0.8126372624500036 0 0 0
115 1 6 1.575 1.141178 5.57944 -2.9326362624500035 0 0 0
116 1 7 1.575 24.461178 11.93944 -5.052636262450001 -1 0 0
117 1 6 1.575 22.341178 9.81944 -2.9326362624500035 -1 0 0
118 1 7 1.575 3.2611779999999992 7.699439999999999 -5.052636262450001 0 0 0
120 1 7 1.575 24.461178 7.699439999999999 -0.8126372624500036 -1 0 0
122 1 7 1.575 23.401178 6.63944 -3.992635262450001 -1 0 0
123 1 7 1.575 2.2011779999999996 10.879439999999999 -3.992635262450001 0 0 0
124 1 6 1.05 2.2011779999999996 8.75944 -1.8726362624500013 0 0 0
125 1 6 1.05 23.401178 8.75944 -6.112636262450003 -1 0 0
126 1 6 1.05 21.281178 10.879439999999999 -6.112636262450003 -1 0 0
127 1 6 1.05 21.281178 6.63944 -1.8726362624500013 -1 0 0
129 1 6 1.05 25.521178 6.63944 -6.112636262450003 -1 0 0
130 1 6 1.05 25.521178 10.879439999999999 -1.8726362624500013 -1 0 0
131 1 6 1.05 23.401178 4.5194399999999995 -1.8726362624500013 -1 0 0
132 1 6 1.05 2.2011779999999996 4.5194399999999995 -6.112636262450003 0 0 0
133 1 7 1.575 21.281178 4.5194399999999995 -3.992635262450001 -1 0 0
136 1 7 1.575 25.521178 8.75944 -3.992635262450001 -1 0 0
139 1 8 -1.05 25.484343000000003 6.676275 -4.029472262450007 -1 0 0
140 1 8 -1.05 25.558013000000003 10.842604 -3.955800262450005 -1 0 0
141 1 8 -1.05 4.284343 8.722605 -1.8358012624499978 0 0 0
142 1 8 -1.05 21.318013 8.796275 -6.14947126245 -1 0 0
143 1 8 -1.05 2.2380129999999996 10.916274999999999 -6.075801262450007 0 0 0
144 1 8 -1.05 23.364343 6.602605 -1.9094732624499997 -1 0 0
147 1 8 -1.05 25.484343000000003 8.722605 -6.075801262450007 -1 0 0
148 1 8 -1.05 25.558013000000003 8.796275 -1.9094732624499997 -1 0 0
149 1 8 -1.05 2.2380129999999996 12.962605 -4.029472262450007 0 0 0
150 1 8 -1.05 23.364343 4.556274999999999 -3.955800262450005 -1 0 0
151 1 8 -1.05 23.438013 10.916274999999999 -1.8358012624499978 -1 0 0
152 1 8 -1.05 2.1643419999999995 6.602605 -6.14947126245 0 0 0
153 1 8 -1.05 4.284343 12.962605 -6.075801262450007 0 0 0
154 1 8 -1.05 21.318013 4.556274999999999 -1.9094732624499997 -1 0 0
155 1 8 -1.05 23.438013 8.722605 -4.029472262450007 -1 0 0
156 1 8 -1.05 2.1643419999999995 8.796275 -3.955800262450005 0 0 0
159 1 8 -1.05 2.2380129999999996 6.676275 -1.8358012624499978 0 0 0
160 1 8 -1.05 23.364343 10.842604 -6.14947126245 -1 0 0
161 1 8 -1.05 25.558013000000003 4.556274999999999 -6.14947126245 -1 0 0
162 1 8 -1.05 25.484343000000003 12.962605 -1.8358012624499978 -1 0 0
163 1 8 -1.05 21.318013 6.602605 -3.955800262450005 -1 0 0
164 1 8 -1.05 4.284343 10.916274999999999 -4.029472262450007 0 0 0
167 1 8 -1.05 23.438013 6.676275 -6.075801262450007 -1 0 0
168 1 8 -1.05 2.1643419999999995 10.842604 -1.9094732624499997 0 0 0
137 1 8 -1.05 23.438013 12.962605 0.21052973754999726 -1 0 0
145 1 8 -1.05 4.284343 6.676275 0.21052973754999726 0 0 0
157 1 8 -1.05 25.484343000000003 10.916274999999999 0.21052973754999726 -1 0 0
166 1 8 -1.05 2.2380129999999996 8.722605 0.21052973754999726 0 0 0
169 1 6 1.575 22.341178 5.57944 1.3073637375499985 -1 0 0
171 1 6 1.575 1.141178 5.57944 5.547363737549997 0 0 0
172 1 7 1.575 24.461178 11.93944 3.4273627375499984 -1 0 0
173 1 7 1.575 22.341178 9.81944 5.547363737549997 -1 0 0
174 1 7 1.575 3.2611779999999992 7.699439999999999 3.4273627375499984 0 0 0
175 1 6 1.575 1.141178 9.81944 1.3073637375499985 0 0 0
177 1 7 1.575 25.521178 4.5194399999999995 0.24736473754999366 -1 0 0
178 1 7 1.575 23.401178 6.63944 4.487363737549998 -1 0 0
179 1 7 1.575 2.2011779999999996 10.879439999999999 4.487363737549998 0 0 0
180 1 6 1.05 2.2011779999999996 8.75944 6.60736473755 0 0 0
181 1 6 1.05 23.401178 8.75944 2.367363737549997 -1 0 0
182 1 6 1.05 21.281178 10.879439999999999 2.367363737549997 -1 0 0
183 1 6 1.05 21.281178 6.63944 6.60736473755 -1 0 0
184 1 7 1.575 21.281178 8.75944 0.24736473754999366 -1 0 0
185 1 6 1.05 25.521178 6.63944 2.367363737549997 -1 0 0
186 1 6 1.05 25.521178 10.879439999999999 6.60736473755 -1 0 0
187 1 6 1.05 23.401178 4.5194399999999995 6.60736473755 -1 0 0
188 1 6 1.05 2.2011779999999996 4.5194399999999995 2.367363737549997 0 0 0
189 1 7 1.575 21.281178 4.5194399999999995 4.487363737549998 -1 0 0
190 1 7 1.575 2.2011779999999996 6.63944 0.24736473754999366 0 0 0
191 1 7 1.575 23.401178 10.879439999999999 0.24736473754999366 -1 0 0
192 1 7 1.575 25.521178 8.75944 4.487363737549998 -1 0 0
194 1 8 -1.05 2.1643419999999995 4.556274999999999 0.2841987375499926 0 0 0
195 1 8 -1.05 25.484343000000003 6.676275 4.450529737549996 -1 0 0
196 1 8 -1.05 25.558013000000003 10.842604 4.524198737549998 -1 0 0
197 1 8 -1.05 4.284343 8.722605 6.644199737549997 0 0 0
198 1 8 -1.05 21.318013 8.796275 2.3305287375499972 -1 0 0
199 1 8 -1.05 2.2380129999999996 10.916274999999999 2.404197737549996 0 0 0
200 1 8 -1.05 23.364343 6.602605 6.570526737549997 -1 0 0
202 1 8 -1.05 21.318013 10.842604 0.2841987375499926 -1 0 0
203 1 8 -1.05 25.484343000000003 8.722605 2.404197737549996 -1 0 0
204 1 8 -1.05 25.558013000000003 8.796275 6.570526737549997 -1 0 0
205 1 8 -1.05 2.2380129999999996 12.962605 4.450529737549996 0 0 0
206 1 8 -1.05 23.364343 4.556274999999999 4.524198737549998 -1 0 0
207 1 8 -1.05 23.438013 10.916274999999999 6.644199737549997 -1 0 0
208 1 8 -1.05 2.1643419999999995 6.602605 2.3305287375499972 0 0 0
209 1 8 -1.05 4.284343 12.962605 2.404197737549996 0 0 0
210 1 8 -1.05 21.318013 4.556274999999999 6.570526737549997 -1 0 0
211 1 8 -1.05 23.438013 8.722605 4.450529737549996 -1 0 0
212 1 8 -1.05 2.1643419999999995 8.796275 4.524198737549998 0 0 0
214 1 8 -1.05 25.558013000000003 6.602605 0.2841987375499926 -1 0 0
215 1 8 -1.05 2.2380129999999996 6.676275 6.644199737549997 0 0 0
216 1 8 -1.05 23.364343 10.842604 2.3305287375499972 -1 0 0
217 1 8 -1.05 25.558013000000003 4.556274999999999 2.3305287375499972 -1 0 0
218 1 8 -1.05 25.484343000000003 12.962605 6.644199737549997 -1 0 0
219 1 8 -1.05 21.318013 6.602605 4.524198737549998 -1 0 0
220 1 8 -1.05 4.284343 10.916274999999999 4.450529737549996 0 0 0
221 1 8 -1.05 23.364343 8.796275 0.2841987375499926 -1 0 0
223 1 8 -1.05 23.438013 6.676275 2.404197737549996 -1 0 0
224 1 8 -1.05 2.1643419999999995 10.842604 6.570526737549997 0 0 0
170 1 7 1.575 3.2611779999999992 11.93944 7.66736273755 0 0 0
176 1 7 1.575 24.461178 7.699439999999999 7.66736273755 -1 0 0
193 1 8 -1.05 23.438013 12.962605 8.690528737549997 -1 0 0
201 1 8 -1.05 4.284343 6.676275 8.690528737549997 0 0 0
213 1 8 -1.05 25.484343000000003 10.916274999999999 8.690528737549997 -1 0 0
222 1 8 -1.05 2.2380129999999996 8.722605 8.690528737549997 0 0 0
225 1 6 1.575 22.341178 5.57944 9.787365737549997 -1 0 0
227 1 6 1.575 1.141178 5.57944 14.02736273755 0 0 0
228 1 7 1.575 24.461178 11.93944 11.907364737549997 -1 0 0
229 1 7 1.575 22.341178 9.81944 14.02736273755 -1 0 0
230 1 6 1.575 3.2611779999999992 7.699439999999999 11.907364737549997 0 0 0
231 1 6 1.575 1.141178 9.81944 9.787365737549997 0 0 0
233 1 7 1.575 25.521178 4.5194399999999995 8.72736373755 -1 0 0
234 1 7 1.575 23.401178 6.63944 12.967365737549997 -1 0 0
235 1 7 1.575 2.2011779999999996 10.879439999999999 12.967365737549997 0 0 0
237 1 6 1.05 23.401178 8.75944 10.84736273755 -1 0 0
238 1 6 1.05 21.281178 10.879439999999999 10.84736273755 -1 0 0
240 1 7 1.575 21.281178 8.75944 8.72736373755 -1 0 0
241 1 6 1.05 25.521178 6.63944 10.84736273755 -1 0 0
244 1 6 1.05 2.2011779999999996 4.5194399999999995 10.84736273755 0 0 0
245 1 7 1.575 21.281178 4.5194399999999995 12.967365737549997 -1 0 0
246 1 7 1.575 2.2011779999999996 6.63944 8.72736373755 0 0 0
247 1 7 1.575 23.401178 10.879439999999999 8.72736373755 -1 0 0
248 1 7 1.575 25.521178 8.75944 12.967365737549997 -1 0 0
250 1 8 -1.05 2.1643419999999995 4.556274999999999 8.764198737549997 0 0 0
251 1 8 -1.05 25.484343000000003 6.676275 12.930526737549997 -1 0 0
252 1 8 -1.05 25.558013000000003 10.842604 13.004200737549994 -1 0 0
254 1 8 -1.05 21.318013 8.796275 10.810527737549997 -1 0 0
255 1 8 -1.05 2.2380129999999996 10.916274999999999 10.884197737549997 0 0 0
258 1 8 -1.05 21.318013 10.842604 8.764198737549997 -1 0 0
259 1 8 -1.05 25.484343000000003 8.722605 10.884197737549997 -1 0 0
261 1 8 -1.05 2.2380129999999996 12.962605 12.930526737549997 0 0 0
262 1 8 -1.05 23.364343 4.556274999999999 13.004200737549994 -1 0 0
264 1 8 -1.05 2.1643419999999995 6.602605 10.810527737549997 0 0 0
265 1 8 -1.05 4.284343 12.962605 10.884197737549997 0 0 0
267 1 8 -1.05 23.438013 8.722605 12.930526737549997 -1 0 0
268 1 8 -1.05 2.1643419999999995 8.796275 13.004200737549994 0 0 0
270 1 8 -1.05 25.558013000000003 6.602605 8.764198737549997 -1 0 0
272 1 8 -1.05 23.364343 10.842604 10.810527737549997 -1 0 0
273 1 8 -1.05 25.558013000000003 4.556274999999999 10.810527737549997 -1 0 0
275 1 8 -1.05 21.318013 6.602605 13.004200737549994 -1 0 0
276 1 8 -1.05 4.284343 10.916274999999999 12.930526737549997 0 0 0
277 1 8 -1.05 23.364343 8.796275 8.764198737549997 -1 0 0
279 1 8 -1.05 23.438013 6.676275 10.884197737549997 -1 0 0
226 1 6 1.575 3.2611779999999992 11.93944 16.14736173755 0 0 0
232 1 7 1.575 24.461178 7.699439999999999 16.14736173755 -1 0 0
236 1 6 1.05 2.2011779999999996 8.75944 15.087364737549997 0 0 0
239 1 6 1.05 21.281178 6.63944 15.087364737549997 -1 0 0
242 1 6 1.05 25.521178 10.879439999999999 15.087364737549997 -1 0 0
243 1 6 1.05 23.401178 4.5194399999999995 15.087364737549997 -1 0 0
249 1 8 -1.05 23.438013 12.962605 17.170528737549994 -1 0 0
253 1 8 -1.05 4.284343 8.722605 15.124199737549993 0 0 0
256 1 8 -1.05 23.364343 6.602605 15.050525737549997 -1 0 0
257 1 8 -1.05 4.284343 6.676275 17.170528737549994 0 0 0
260 1 8 -1.05 25.558013000000003 8.796275 15.050525737549997 -1 0 0
263 1 8 -1.05 23.438013 10.916274999999999 15.124199737549993 -1 0 0
266 1 8 -1.05 21.318013 4.556274999999999 15.050525737549997 -1 0 0
269 1 8 -1.05 25.484343000000003 10.916274999999999 17.170528737549994 -1 0 0
271 1 8 -1.05 2.2380129999999996 6.676275 15.124199737549993 0 0 0
274 1 8 -1.05 25.484343000000003 12.962605 15.124199737549993 -1 0 0
278 1 8 -1.05 2.2380129999999996 8.722605 17.170528737549994 0 0 0
280 1 8 -1.05 2.1643419999999995 10.842604 15.050525737549997 0 0 0
281 1 7 1.575 22.341178 5.57944 18.267364737549997 -1 0 0
284 1 7 1.575 24.461178 11.93944 20.387363737549997 -1 0 0
286 1 6 1.575 3.2611779999999992 7.699439999999999 20.387363737549997 0 0 0
287 1 7 1.575 1.141178 9.81944 18.267364737549997 0 0 0
289 1 7 1.575 25.521178 4.5194399999999995 17.207363737549997 -1 0 0
293 1 6 1.05 23.401178 8.75944 19.327362737549997 -1 0 0
294 1 6 1.05 21.281178 10.879439999999999 19.327362737549997 -1 0 0
296 1 7 1.575 21.281178 8.75944 17.207363737549997 -1 0 0
297 1 6 1.05 25.521178 6.63944 19.327362737549997 -1 0 0
300 1 6 1.05 2.2011779999999996 4.5194399999999995 19.327362737549997 0 0 0
302 1 7 1.575 2.2011779999999996 6.63944 17.207363737549997 0 0 0
303 1 7 1.575 23.401178 10.879439999999999 17.207363737549997 -1 0 0
306 1 8 -1.05 2.1643419999999995 4.556274999999999 17.244197737549996 0 0 0
307 1 8 -1.05 25.484343000000003 6.676275 21.410530737549998 -1 0 0
310 1 8 -1.05 21.318013 8.796275 19.290527737549994 -1 0 0
311 1 8 -1.05 2.2380129999999996 10.916274999999999 19.364196737549996 0 0 0
314 1 8 -1.05 21.318013 10.842604 17.244197737549996 -1 0 0
315 1 8 -1.05 25.484343000000003 8.722605 19.364196737549996 -1 0 0
317 1 8 -1.05 2.2380129999999996 12.962605 21.410530737549998 0 0 0
320 1 8 -1.05 2.1643419999999995 6.602605 19.290527737549994 0 0 0
321 1 8 -1.05 4.284343 12.962605 19.364196737549996 0 0 0
323 1 8 -1.05 23.438013 8.722605 21.410530737549998 -1 0 0
326 1 8 -1.05 25.558013000000003 6.602605 17.244197737549996 -1 0 0
328 1 8 -1.05 23.364343 10.842604 19.290527737549994 -1 0 0
329 1 8 -1.05 25.558013000000003 4.556274999999999 19.290527737549994 -1 0 0
332 1 8 -1.05 4.284343 10.916274999999999 21.410530737549998 0 0 0
333 1 8 -1.05 23.364343 8.796275 17.244197737549996 -1 0 0
335 1 8 -1.05 23.438013 6.676275 19.364196737549996 -1 0 0
282 1 7 1.575 3.2611779999999992 11.93944 24.627365737549994 0 0 0
283 1 6 1.575 1.141178 5.57944 22.507362737549997 0 0 0
285 1 7 1.575 22.341178 9.81944 22.507362737549997 -1 0 0
288 1 7 1.575 24.461178 7.699439999999999 24.627365737549994 -1 0 0
290 1 7 1.575 23.401178 6.63944 21.447364737549997 -1 0 0
291 1 7 1.575 2.2011779999999996 10.879439999999999 21.447364737549997 0 0 0
292 1 6 1.05 2.2011779999999996 8.75944 23.567363737549996 0 0 0
295 1 6 1.05 21.281178 6.63944 23.567363737549996 -1 0 0
298 1 6 1.05 25.521178 10.879439999999999 23.567363737549996 -1 0 0
299 1 6 1.05 23.401178 4.5194399999999995 23.567363737549996 -1 0 0
301 1 7 1.575 21.281178 4.5194399999999995 21.447364737549997 -1 0 0
304 1 7 1.575 25.521178 8.75944 21.447364737549997 -1 0 0
305 1 8 -1.05 23.438013 12.962605 25.650528737549998 -1 0 0
308 1 8 -1.05 25.558013000000003 10.842604 21.48419973755 -1 0 0
309 1 8 -1.05 4.284343 8.722605 23.60419873755 0 0 0
312 1 8 -1.05 23.364343 6.602605 23.530529737549998 -1 0 0
313 1 8 -1.05 4.284343 6.676275 25.650528737549998 0 0 0
316 1 8 -1.05 25.558013000000003 8.796275 23.530529737549998 -1 0 0
318 1 8 -1.05 23.364343 4.556274999999999 21.48419973755 -1 0 0
319 1 8 -1.05 23.438013 10.916274999999999 23.60419873755 -1 0 0
322 1 8 -1.05 21.318013 4.556274999999999 23.530529737549998 -1 0 0
324 1 8 -1.05 2.1643419999999995 8.796275 21.48419973755 0 0 0
325 1 8 -1.05 25.484343000000003 10.916274999999999 25.650528737549998 -1 0 0
327 1 8 -1.05 2.2380129999999996 6.676275 23.60419873755 0 0 0
330 1 8 -1.05 25.484343000000003 12.962605 23.60419873755 -1 0 0
331 1 8 -1.05 21.318013 6.602605 21.48419973755 -1 0 0
334 1 8 -1.05 2.2380129999999996 8.722605 25.650528737549998 0 0 0
336 1 8 -1.05 2.1643419999999995 10.842604 23.530529737549998 0 0 0
337 1 7 1.575 22.341178 5.57944 26.747364737549994 -1 0 0
343 1 7 1.575 1.141178 9.81944 26.747364737549994 0 0 0
345 1 7 1.575 25.521178 4.5194399999999995 25.687362737549996 -1 0 0
349 1 6 1.05 23.401178 8.75944 27.807361737549996 -1 0 0
350 1 6 1.05 21.281178 10.879439999999999 27.807361737549996 -1 0 0
352 1 7 1.575 21.281178 8.75944 25.687362737549996 -1 0 0
353 1 6 1.05 25.521178 6.63944 27.807361737549996 -1 0 0
356 1 6 1.05 2.2011779999999996 4.5194399999999995 27.807361737549996 0 0 0
358 1 7 1.575 2.2011779999999996 6.63944 25.687362737549996 0 0 0
359 1 7 1.575 23.401178 10.879439999999999 25.687362737549996 -1 0 0
362 1 8 -1.05 2.1643419999999995 4.556274999999999 25.72419773755 0 0 0
366 1 8 -1.05 21.318013 8.796275 27.770527737549997 -1 0 0
367 1 8 -1.05 2.2380129999999996 10.916274999999999 27.844200737549997 0 0 0
370 1 8 -1.05 21.318013 10.842604 25.72419773755 -1 0 0
371 1 8 -1.05 25.484343000000003 8.722605 27.844200737549997 -1 0 0
376 1 8 -1.05 2.1643419999999995 6.602605 27.770527737549997 0 0 0
377 1 8 -1.05 4.284343 12.962605 27.844200737549997 0 0 0
382 1 8 -1.05 25.558013000000003 6.602605 25.72419773755 -1 0 0
384 1 8 -1.05 23.364343 10.842604 27.770527737549997 -1 0 0
385 1 8 -1.05 25.558013000000003 4.556274999999999 27.770527737549997 -1 0 0
389 1 8 -1.05 23.364343 8.796275 25.72419773755 -1 0 0
391 1 8 -1.05 23.438013 6.676275 27.844200737549997 -1 0 0
338 1 7 1.575 3.2611779999999992 11.93944 33.10736473755 0 0 0
339 1 7 1.575 1.141178 5.57944 30.987362737549994 0 0 0
340 1 7 1.575 24.461178 11.93944 28.867363737549994 -1 0 0
341 1 7 1.575 22.341178 9.81944 30.987362737549994 -1 0 0
342 1 6 1.575 3.2611779999999992 7.699439999999999 28.867363737549994 0 0 0
344 1 7 1.575 24.461178 7.699439999999999 33.10736473755 -1 0 0
346 1 7 1.575 23.401178 6.63944 29.92736473755 -1 0 0
347 1 7 1.575 2.2011779999999996 10.879439999999999 29.92736473755 0 0 0
348 1 6 1.05 2.2011779999999996 8.75944 32.04736373755 0 0 0
351 1 6 1.05 21.281178 6.63944 32.04736373755 -1 0 0
354 1 6 1.05 25.521178 10.879439999999999 32.04736373755 -1 0 0
355 1 6 1.05 23.401178 4.5194399999999995 32.04736373755 -1 0 0
357 1 7 1.575 21.281178 4.5194399999999995 29.92736473755 -1 0 0
360 1 7 1.575 25.521178 8.75944 29.92736473755 -1 0 0
361 1 8 -1.05 23.438013 12.962605 34.13052773755 -1 0 0
363 1 8 -1.05 25.484343000000003 6.676275 29.890529737549997 -1 0 0
364 1 8 -1.05 25.558013000000003 10.842604 29.964199737549997 -1 0 0
365 1 8 -1.05 4.284343 8.722605 32.08419873755 0 0 0
368 1 8 -1.05 23.364343 6.602605 32.01052873755 -1 0 0
369 1 8 -1.05 4.284343 6.676275 34.13052773755 0 0 0
372 1 8 -1.05 25.558013000000003 8.796275 32.01052873755 -1 0 0
373 1 8 -1.05 2.2380129999999996 12.962605 29.890529737549997 0 0 0
374 1 8 -1.05 23.364343 4.556274999999999 29.964199737549997 -1 0 0
375 1 8 -1.05 23.438013 10.916274999999999 32.08419873755 -1 0 0
378 1 8 -1.05 21.318013 4.556274999999999 32.01052873755 -1 0 0
379 1 8 -1.05 23.438013 8.722605 29.890529737549997 -1 0 0
380 1 8 -1.05 2.1643419999999995 8.796275 29.964199737549997 0 0 0
381 1 8 -1.05 25.484343000000003 10.916274999999999 34.13052773755 -1 0 0
383 1 8 -1.05 2.2380129999999996 6.676275 32.08419873755 0 0 0
386 1 8 -1.05 25.484343000000003 12.962605 32.08419873755 -1 0 0
387 1 8 -1.05 21.318013 6.602605 29.964199737549997 -1 0 0
388 1 8 -1.05 4.284343 10.916274999999999 29.890529737549997 0 0 0
390 1 8 -1.05 2.2380129999999996 8.722605 34.13052773755 0 0 0
392 1 8 -1.05 2.1643419999999995 10.842604 32.01052873755 0 0 0
393 1 7 1.575 22.341178 5.57944 35.22736373755 -1 0 0
399 1 7 1.575 1.141178 9.81944 35.22736373755 0 0 0
401 1 7 1.575 25.521178 4.5194399999999995 34.16736273755 -1 0 0
408 1 7 1.575 21.281178 8.75944 34.16736273755 -1 0 0
414 1 7 1.575 2.2011779999999996 6.63944 34.16736273755 0 0 0
415 1 7 1.575 23.401178 10.879439999999999 34.16736273755 -1 0 0
418 1 8 -1.05 2.1643419999999995 4.556274999999999 34.20419773755 0 0 0
426 1 8 -1.05 21.318013 10.842604 34.20419773755 -1 0 0
438 1 8 -1.05 25.558013000000003 6.602605 34.20419773755 -1 0 0
445 1 8 -1.05 23.364343 8.796275 34.20419773755 -1 0 0
12 1 8 -1.05 23.364343 8.796275 42.68420073755 -1 0 0
19 1 8 -1.05 25.558013000000003 6.602605 42.68420073755 -1 0 0
32 1 8 -1.05 21.318013 10.842604 42.68420073755 -1 0 0
41 1 8 -1.05 2.1643419999999995 4.556274999999999 42.68420073755 0 0 0
44 1 7 1.575 23.401178 10.879439999999999 42.647365737550004 -1 0 0
46 1 7 1.575 2.2011779999999996 6.63944 42.647365737550004 0 0 0
52 1 7 1.575 21.281178 8.75944 42.647365737550004 -1 0 0
394 1 6 1.575 3.2611779999999992 11.93944 41.58736073755 0 0 0
395 1 6 1.575 1.141178 5.57944 39.46736573755 0 0 0
396 1 7 1.575 24.461178 11.93944 37.34736273755 -1 0 0
397 1 6 1.575 22.341178 9.81944 39.46736573755 -1 0 0
398 1 6 1.575 3.2611779999999992 7.699439999999999 37.34736273755 0 0 0
400 1 7 1.575 24.461178 7.699439999999999 41.58736073755 -1 0 0
402 1 7 1.575 23.401178 6.63944 38.40736473755 -1 0 0
403 1 7 1.575 2.2011779999999996 10.879439999999999 38.40736473755 0 0 0
404 1 6 1.05 2.2011779999999996 8.75944 40.52736273754999 0 0 0
405 1 6 1.05 23.401178 8.75944 36.28736573755 -1 0 0
406 1 6 1.05 21.281178 10.879439999999999 36.28736573755 -1 0 0
407 1 6 1.05 21.281178 6.63944 40.52736273754999 -1 0 0
409 1 6 1.05 25.521178 6.63944 36.28736573755 -1 0 0
410 1 6 1.05 25.521178 10.879439999999999 40.52736273754999 -1 0 0
411 1 6 1.05 23.401178 4.5194399999999995 40.52736273754999 -1 0 0
412 1 6 1.05 2.2011779999999996 4.5194399999999995 36.28736573755 0 0 0
413 1 7 1.575 21.281178 4.5194399999999995 38.40736473755 -1 0 0
416 1 7 1.575 25.521178 8.75944 38.40736473755 -1 0 0
417 1 8 -1.05 23.438013 12.962605 42.61053073754999 -1 0 0
419 1 8 -1.05 25.484343000000003 6.676275 38.370529737549994 -1 0 0
420 1 8 -1.05 25.558013000000003 10.842604 38.444198737549996 -1 0 0
421 1 8 -1.05 4.284343 8.722605 40.56419773755 0 0 0
422 1 8 -1.05 21.318013 8.796275 36.250530737549994 -1 0 0
423 1 8 -1.05 2.2380129999999996 10.916274999999999 36.324199737549996 0 0 0
424 1 8 -1.05 23.364343 6.602605 40.490528737549994 -1 0 0
425 1 8 -1.05 4.284343 6.676275 42.61053073754999 0 0 0
427 1 8 -1.05 25.484343000000003 8.722605 36.324199737549996 -1 0 0
428 1 8 -1.05 25.558013000000003 8.796275 40.490528737549994 -1 0 0
429 1 8 -1.05 2.2380129999999996 12.962605 38.370529737549994 0 0 0
430 1 8 -1.05 23.364343 4.556274999999999 38.444198737549996 -1 0 0
431 1 8 -1.05 23.438013 10.916274999999999 40.56419773755 -1 0 0
432 1 8 -1.05 2.1643419999999995 6.602605 36.250530737549994 0 0 0
433 1 8 -1.05 4.284343 12.962605 36.324199737549996 0 0 0
434 1 8 -1.05 21.318013 4.556274999999999 40.490528737549994 -1 0 0
435 1 8 -1.05 23.438013 8.722605 38.370529737549994 -1 0 0
436 1 8 -1.05 2.1643419999999995 8.796275 38.444198737549996 0 0 0
437 1 8 -1.05 25.484343000000003 10.916274999999999 42.61053073754999 -1 0 0
439 1 8 -1.05 2.2380129999999996 6.676275 40.56419773755 0 0 0
440 1 8 -1.05 23.364343 10.842604 36.250530737549994 -1 0 0
441 1 8 -1.05 25.558013000000003 4.556274999999999 36.250530737549994 -1 0 0
442 1 8 -1.05 25.484343000000003 12.962605 40.56419773755 -1 0 0
443 1 8 -1.05 21.318013 6.602605 38.444198737549996 -1 0 0
444 1 8 -1.05 4.284343 10.916274999999999 38.370529737549994 0 0 0
446 1 8 -1.05 2.2380129999999996 8.722605 42.61053073754999 0 0 0
447 1 8 -1.05 23.438013 6.676275 36.324199737549996 -1 0 0
448 1 8 -1.05 2.1643419999999995 10.842604 40.490528737549994 0 0 0
457 1 7 1.575 25.521178 4.5194399999999995 42.647365737550004 -1 0 0
9 1 8 -1.05 2.1643419999999995 10.842604 48.970523737549996 0 0 0
10 1 8 -1.05 23.438013 6.676275 44.80419573755 -1 0 0
13 1 8 -1.05 4.284343 10.916274999999999 46.85052873754999 0 0 0
14 1 8 -1.05 21.318013 6.602605 46.92419873755 -1 0 0
15 1 8 -1.05 25.484343000000003 12.962605 49.04420173755 -1 0 0
16 1 8 -1.05 25.558013000000003 4.556274999999999 44.730526737549994 -1 0 0
17 1 8 -1.05 23.364343 10.842604 44.730526737549994 -1 0 0
18 1 8 -1.05 2.2380129999999996 6.676275 49.04420173755 0 0 0
21 1 8 -1.05 2.1643419999999995 8.796275 46.92419873755 0 0 0
22 1 8 -1.05 23.438013 8.722605 46.85052873754999 -1 0 0
23 1 8 -1.05 21.318013 4.556274999999999 48.970523737549996 -1 0 0
24 1 8 -1.05 4.284343 12.962605 44.80419573755 0 0 0
26 1 8 -1.05 2.1643419999999995 6.602605 44.730526737549994 0 0 0
27 1 8 -1.05 23.438013 10.916274999999999 49.04420173755 -1 0 0
28 1 8 -1.05 23.364343 4.556274999999999 46.92419873755 -1 0 0
29 1 8 -1.05 2.2380129999999996 12.962605 46.85052873754999 0 0 0
30 1 8 -1.05 25.558013000000003 8.796275 48.970523737549996 -1 0 0
31 1 8 -1.05 25.484343000000003 8.722605 44.80419573755 -1 0 0
35 1 8 -1.05 23.364343 6.602605 48.970523737549996 -1 0 0
36 1 8 -1.05 2.2380129999999996 10.916274999999999 44.80419573755 0 0 0
37 1 8 -1.05 21.318013 8.796275 44.730526737549994 -1 0 0
38 1 8 -1.05 4.284343 8.722605 49.04420173755 0 0 0
39 1 8 -1.05 25.558013000000003 10.842604 46.92419873755 -1 0 0
40 1 8 -1.05 25.484343000000003 6.676275 46.85052873754999 -1 0 0
43 1 7 1.575 25.521178 8.75944 46.887363737550004 -1 0 0
47 1 7 1.575 21.281178 4.5194399999999995 46.887363737550004 -1 0 0
48 1 6 1.05 2.2011779999999996 4.5194399999999995 44.76736073754999 0 0 0
49 1 7 1.575 23.401178 4.5194399999999995 49.00736673755 -1 0 0
50 1 7 1.575 25.521178 10.879439999999999 49.00736673755 -1 0 0
51 1 6 1.05 25.521178 6.63944 44.76736073754999 -1 0 0
53 1 7 1.575 21.281178 6.63944 49.00736673755 -1 0 0
55 1 6 1.05 21.281178 10.879439999999999 44.76736073754999 -1 0 0
56 1 6 1.05 23.401178 8.75944 44.76736073754999 -1 0 0
449 1 6 1.575 22.341178 5.57944 43.70736373755 -1 0 0
451 1 6 1.575 1.141178 5.57944 47.94736173755 0 0 0
452 1 7 1.575 24.461178 11.93944 45.82736573755 -1 0 0
453 1 7 1.575 22.341178 9.81944 47.94736173755 -1 0 0
454 1 7 1.575 3.2611779999999992 7.699439999999999 45.82736573755 0 0 0
455 1 7 1.575 1.141178 9.81944 43.70736373755 0 0 0
458 1 7 1.575 23.401178 6.63944 46.887363737550004 -1 0 0
459 1 7 1.575 2.2011779999999996 10.879439999999999 46.887363737550004 0 0 0
460 1 7 1.575 2.2011779999999996 8.75944 49.00736673755 0 0 0
1 1 7 1.575 21.281178 8.75944 51.127361737550004 -1 0 0