LAMMPS data file via write_data, version 17 Feb 2022, timestep = 0

475 atoms
10 atom types
9 bonds
6 bond types
9 angles
6 angle types
0 dihedrals
2 dihedral types
3 impropers
2 improper types

0.239999 8.719999 xlo xhi
0.239999 8.719999 ylo yhi
-100 100 zlo zhi

Masses

1 12.011
2 1.008
3 15.9994
4 15.9994
5 1.008
6 55.845
7 55.845
8 15.9994
9 15.9994
10 1.008

Pair Coeffs # lj/cut/coul/cut

1 0.0988 3.31521
2 0.0161 2.4473
3 0.1463 3.04812
4 0.093 3.24287
5 0.0047 0.537925
6 9.0298e-07 4.9062
7 9.0298e-07 4.9062
8 0.1554 3.16554
9 0.1554 3.16554
10 0 0

Bond Coeffs # harmonic

1 361.8 1.105
2 652.57 1.218
3 383.13 1.351
4 563.51 0.973
5 554.135 1
6 0 2.08

Angle Coeffs # harmonic

1 51.617 106.55
2 65.93 123.65
3 65.262 109.49
4 115.745 122.1
5 118.817 130.25
6 30 109.47

Dihedral Coeffs # fourier

1 1 2.3 2 180
2 2 2.3 2 180 1.9 1 0

Improper Coeffs # cvff

1 10.5 -1 2
2 10.5 -1 2

Atoms # full

1 1 7 1.575 4.321178 0.27943999999999924 17.229463737550006 -1 1 0
2 1 7 1.575 2.2011779999999996 6.63944 17.229463737550006 0 0 0
3 1 7 1.575 6.441178 2.3994399999999985 17.229463737550006 -1 1 0
4 1 7 1.575 8.561178 4.5194399999999995 17.229463737550006 -1 0 0
5 1 8 -1.05 2.1643419999999995 4.556274999999999 17.266298737550002 0 0 0
6 1 8 -1.05 4.358013 2.3626039999999993 17.266298737550002 -1 1 0
7 1 8 -1.05 8.598013 6.602605 17.266298737550002 -1 0 0
8 1 8 -1.05 6.404343 0.3162749999999992 17.266298737550002 -1 1 0
9 1 8 -1.05 2.1643419999999995 2.3626039999999993 15.072625737549998 0 1 0
10 1 8 -1.05 6.478013000000001 6.676275 10.906297737550005 -1 0 0
11 1 8 -1.05 2.2380129999999996 0.2426049999999993 17.192628737549995 0 1 0
12 1 8 -1.05 6.404343 0.3162749999999992 8.786302737550002 -1 1 0
13 1 8 -1.05 4.284343 2.4362749999999984 12.952630737549995 0 1 0
14 1 8 -1.05 4.358013 6.602605 13.026300737550002 -1 0 0
15 1 8 -1.05 8.524343 4.4826049999999995 15.14630373755 -1 1 0
16 1 8 -1.05 8.598013 4.556274999999999 10.832628737549996 -1 0 0
17 1 8 -1.05 6.404343 2.3626039999999993 10.832628737549996 -1 1 0
18 1 8 -1.05 2.2380129999999996 6.676275 15.14630373755 0 0 0
19 1 8 -1.05 8.598013 6.602605 8.786302737550002 -1 0 0
20 1 8 -1.05 8.524343 2.4362749999999984 17.192628737549995 -1 1 0
21 1 8 -1.05 2.1643419999999995 0.3162749999999992 13.026300737550002 0 1 0
22 1 8 -1.05 6.478013000000001 0.2426049999999993 12.952630737549995 -1 1 0
23 1 8 -1.05 4.358013 4.556274999999999 15.072625737549998 -1 0 0
24 1 8 -1.05 4.284343 4.4826049999999995 10.906297737550005 0 1 0
25 1 8 -1.05 6.478013000000001 4.4826049999999995 -50.64736926245 -1 1 0
26 1 8 -1.05 2.1643419999999995 6.602605 10.832628737549996 0 0 0
27 1 8 -1.05 6.478013000000001 2.4362749999999984 15.14630373755 -1 1 0
28 1 8 -1.05 6.404343 4.556274999999999 13.026300737550002 -1 0 0
29 1 8 -1.05 2.2380129999999996 4.4826049999999995 12.952630737549995 0 1 0
30 1 8 -1.05 8.598013 0.3162749999999992 15.072625737549998 -1 1 0
31 1 8 -1.05 8.524343 0.2426049999999993 10.906297737550005 -1 1 0
32 1 8 -1.05 4.358013 2.3626039999999993 8.786302737550002 -1 1 0
33 1 8 -1.05 4.284343 6.676275 -50.64736926245 0 0 0
34 1 8 -1.05 4.284343 6.676275 17.192628737549995 0 0 0
35 1 8 -1.05 6.404343 6.602605 15.072625737549998 -1 0 0
36 1 8 -1.05 2.2380129999999996 2.4362749999999984 10.906297737550005 0 1 0
37 1 8 -1.05 4.358013 0.3162749999999992 10.832628737549996 -1 1 0
38 1 8 -1.05 4.284343 0.2426049999999993 15.14630373755 0 1 0
39 1 8 -1.05 8.598013 2.3626039999999993 13.026300737550002 -1 1 0
40 1 8 -1.05 8.524343 6.676275 12.952630737549995 -1 0 0
41 1 8 -1.05 2.1643419999999995 4.556274999999999 8.786302737550002 0 0 0
42 1 8 -1.05 6.478013000000001 4.4826049999999995 17.192628737549995 -1 1 0
43 1 7 1.575 8.561178 0.27943999999999924 12.989465737550006 -1 1 0
44 1 7 1.575 6.441178 2.3994399999999985 8.749467737550006 -1 1 0
45 1 8 -1.05 8.524343 2.4362749999999984 -50.64736926245 -1 1 0
46 1 7 1.575 2.2011779999999996 6.63944 8.749467737550006 0 0 0
47 1 7 1.575 4.321178 4.5194399999999995 12.989465737550006 -1 0 0
48 1 6 1.05 2.2011779999999996 4.5194399999999995 10.869462737549995 0 0 0
49 1 7 1.575 6.441178 4.5194399999999995 15.109468737550003 -1 0 0
50 1 7 1.575 8.561178 2.3994399999999985 15.109468737550003 -1 1 0
51 1 6 1.05 8.561178 6.63944 10.869462737549995 -1 0 0
52 1 7 1.575 4.321178 0.27943999999999924 8.749467737550006 -1 1 0
53 1 7 1.575 4.321178 6.63944 15.109468737550003 -1 0 0
54 1 8 -1.05 2.2380129999999996 0.2426049999999993 -50.64736926245 0 1 0
55 1 6 1.05 4.321178 2.3994399999999985 10.869462737549995 -1 1 0
56 1 6 1.05 6.441178 0.27943999999999924 10.869462737549995 -1 1 0
57 1 7 1.575 5.381178 5.57944 -49.55053426245 -1 0 0
58 1 6 1.575 3.2611779999999992 3.459439999999999 -43.19053426245 0 1 0
59 1 7 1.575 1.141178 5.57944 -45.31053426245 0 0 0
60 1 6 1.575 7.5011779999999995 3.459439999999999 -47.43053426245 -1 1 0
61 1 7 1.575 5.381178 1.3394399999999997 -45.31053426245 -1 1 0
62 1 7 1.575 3.2611779999999992 7.699439999999999 -47.43053426245 0 0 0
63 1 6 1.575 1.141178 1.3394399999999997 -49.55053426245 0 1 0
64 1 7 1.575 7.5011779999999995 7.699439999999999 -43.19053426245 -1 0 0
65 1 7 1.575 8.561178 4.5194399999999995 -50.61053426245 -1 0 0
66 1 7 1.575 6.441178 6.63944 -46.37053426245 -1 0 0
67 1 7 1.575 2.2011779999999996 2.3994399999999985 -46.37053426245 0 1 0
68 1 6 1.05 2.2011779999999996 0.27943999999999924 -44.25053426245 0 1 0
69 1 7 1.575 6.441178 0.27943999999999924 -48.490534262450005 -1 1 0
70 1 7 1.575 4.321178 2.3994399999999985 -48.490534262450005 -1 1 0
71 1 6 1.05 4.321178 6.63944 -44.25053426245 -1 0 0
72 1 7 1.575 4.321178 0.27943999999999924 -50.61053426245 -1 1 0
73 1 7 1.575 8.561178 6.63944 -48.490534262450005 -1 0 0
74 1 6 1.05 8.561178 2.3994399999999985 -44.25053426245 -1 1 0
75 1 6 1.05 6.441178 4.5194399999999995 -44.25053426245 -1 0 0
76 1 7 1.575 2.2011779999999996 4.5194399999999995 -48.490534262450005 0 0 0
77 1 7 1.575 4.321178 4.5194399999999995 -46.37053426245 -1 0 0
78 1 7 1.575 2.2011779999999996 6.63944 -50.61053426245 0 0 0
79 1 7 1.575 6.441178 2.3994399999999985 -50.61053426245 -1 1 0
80 1 7 1.575 8.561178 0.27943999999999924 -46.37053426245 -1 1 0
81 1 8 -1.05 6.478013000000001 4.4826049999999995 -42.16737026245 -1 1 0
82 1 8 -1.05 2.1643419999999995 4.556274999999999 -50.57369926245 0 0 0
83 1 8 -1.05 8.524343 6.676275 -46.40736926245 -1 0 0
84 1 8 -1.05 8.598013 2.3626039999999993 -46.333699262450004 -1 1 0
85 1 8 -1.05 4.284343 0.2426049999999993 -44.21369926245 0 1 0
86 1 8 -1.05 4.358013 0.3162749999999992 -48.52736926245 -1 1 0
87 1 8 -1.05 2.2380129999999996 2.4362749999999984 -48.45369926245 0 1 0
88 1 8 -1.05 6.404343 6.602605 -44.287370262450004 -1 0 0
89 1 8 -1.05 4.284343 6.676275 -42.16737026245 0 0 0
90 1 8 -1.05 4.358013 2.3626039999999993 -50.57369926245 -1 1 0
91 1 8 -1.05 8.524343 0.2426049999999993 -48.45369926245 -1 1 0
92 1 8 -1.05 8.598013 0.3162749999999992 -44.287370262450004 -1 1 0
93 1 8 -1.05 2.2380129999999996 4.4826049999999995 -46.40736926245 0 1 0
94 1 8 -1.05 6.404343 4.556274999999999 -46.333699262450004 -1 0 0
95 1 8 -1.05 6.478013000000001 2.4362749999999984 -44.21369926245 -1 1 0
96 1 8 -1.05 2.1643419999999995 6.602605 -48.52736926245 0 0 0
97 1 8 -1.05 4.284343 4.4826049999999995 -48.45369926245 0 1 0
98 1 8 -1.05 4.358013 4.556274999999999 -44.287370262450004 -1 0 0
99 1 8 -1.05 6.478013000000001 0.2426049999999993 -46.40736926245 -1 1 0
100 1 8 -1.05 2.1643419999999995 0.3162749999999992 -46.333699262450004 0 1 0
101 1 8 -1.05 8.524343 2.4362749999999984 -42.16737026245 -1 1 0
102 1 8 -1.05 8.598013 6.602605 -50.57369926245 -1 0 0
103 1 8 -1.05 2.2380129999999996 6.676275 -44.21369926245 0 0 0
104 1 8 -1.05 6.404343 2.3626039999999993 -48.52736926245 -1 1 0
105 1 8 -1.05 8.598013 4.556274999999999 -48.52736926245 -1 0 0
106 1 8 -1.05 8.524343 4.4826049999999995 -44.21369926245 -1 1 0
107 1 8 -1.05 4.358013 6.602605 -46.333699262450004 -1 0 0
108 1 8 -1.05 4.284343 2.4362749999999984 -46.40736926245 0 1 0
109 1 8 -1.05 6.404343 0.3162749999999992 -50.57369926245 -1 1 0
110 1 8 -1.05 2.2380129999999996 0.2426049999999993 -42.16737026245 0 1 0
111 1 8 -1.05 6.478013000000001 6.676275 -48.45369926245 -1 0 0
112 1 8 -1.05 2.1643419999999995 2.3626039999999993 -44.287370262450004 0 1 0
113 1 7 1.575 5.381178 5.57944 -41.070533262450006 -1 0 0
114 1 6 1.575 3.2611779999999992 3.459439999999999 -34.71053526245 0 1 0
115 1 6 1.575 1.141178 5.57944 -36.83053426245 0 0 0
116 1 7 1.575 7.5011779999999995 3.459439999999999 -38.95053426245 -1 1 0
117 1 6 1.575 5.381178 1.3394399999999997 -36.83053426245 -1 1 0
118 1 7 1.575 3.2611779999999992 7.699439999999999 -38.95053426245 0 0 0
119 1 7 1.575 1.141178 1.3394399999999997 -41.070533262450006 0 1 0
120 1 7 1.575 7.5011779999999995 7.699439999999999 -34.71053526245 -1 0 0
121 1 7 1.575 8.561178 4.5194399999999995 -42.13053526245 -1 0 0
122 1 7 1.575 6.441178 6.63944 -37.89053326245 -1 0 0
123 1 7 1.575 2.2011779999999996 2.3994399999999985 -37.89053326245 0 1 0
124 1 6 1.05 2.2011779999999996 0.27943999999999924 -35.77053426245 0 1 0
125 1 6 1.05 6.441178 0.27943999999999924 -40.01053426245 -1 1 0
126 1 6 1.05 4.321178 2.3994399999999985 -40.01053426245 -1 1 0
127 1 6 1.05 4.321178 6.63944 -35.77053426245 -1 0 0
128 1 7 1.575 4.321178 0.27943999999999924 -42.13053526245 -1 1 0
129 1 6 1.05 8.561178 6.63944 -40.01053426245 -1 0 0
130 1 6 1.05 8.561178 2.3994399999999985 -35.77053426245 -1 1 0
131 1 6 1.05 6.441178 4.5194399999999995 -35.77053426245 -1 0 0
132 1 6 1.05 2.2011779999999996 4.5194399999999995 -40.01053426245 0 0 0
133 1 7 1.575 4.321178 4.5194399999999995 -37.89053326245 -1 0 0
134 1 7 1.575 2.2011779999999996 6.63944 -42.13053526245 0 0 0
135 1 7 1.575 6.441178 2.3994399999999985 -42.13053526245 -1 1 0
136 1 7 1.575 8.561178 0.27943999999999924 -37.89053326245 -1 1 0
137 1 8 -1.05 6.478013000000001 4.4826049999999995 -33.68736826245 -1 1 0
138 1 8 -1.05 2.1643419999999995 4.556274999999999 -42.09369826245 0 0 0
139 1 8 -1.05 8.524343 6.676275 -37.927370262450005 -1 0 0
140 1 8 -1.05 8.598013 2.3626039999999993 -37.85369826245 -1 1 0
141 1 8 -1.05 4.284343 0.2426049999999993 -35.733699262449996 0 1 0
142 1 8 -1.05 4.358013 0.3162749999999992 -40.04736926245 -1 1 0
143 1 8 -1.05 2.2380129999999996 2.4362749999999984 -39.973699262450005 0 1 0
144 1 8 -1.05 6.404343 6.602605 -35.80737126245 -1 0 0
145 1 8 -1.05 4.284343 6.676275 -33.68736826245 0 0 0
146 1 8 -1.05 4.358013 2.3626039999999993 -42.09369826245 -1 1 0
147 1 8 -1.05 8.524343 0.2426049999999993 -39.973699262450005 -1 1 0
148 1 8 -1.05 8.598013 0.3162749999999992 -35.80737126245 -1 1 0
149 1 8 -1.05 2.2380129999999996 4.4826049999999995 -37.927370262450005 0 1 0
150 1 8 -1.05 6.404343 4.556274999999999 -37.85369826245 -1 0 0
151 1 8 -1.05 6.478013000000001 2.4362749999999984 -35.733699262449996 -1 1 0
152 1 8 -1.05 2.1643419999999995 6.602605 -40.04736926245 0 0 0
153 1 8 -1.05 4.284343 4.4826049999999995 -39.973699262450005 0 1 0
154 1 8 -1.05 4.358013 4.556274999999999 -35.80737126245 -1 0 0
155 1 8 -1.05 6.478013000000001 0.2426049999999993 -37.927370262450005 -1 1 0
156 1 8 -1.05 2.1643419999999995 0.3162749999999992 -37.85369826245 0 1 0
157 1 8 -1.05 8.524343 2.4362749999999984 -33.68736826245 -1 1 0
158 1 8 -1.05 8.598013 6.602605 -42.09369826245 -1 0 0
159 1 8 -1.05 2.2380129999999996 6.676275 -35.733699262449996 0 0 0
160 1 8 -1.05 6.404343 2.3626039999999993 -40.04736926245 -1 1 0
161 1 8 -1.05 8.598013 4.556274999999999 -40.04736926245 -1 0 0
162 1 8 -1.05 8.524343 4.4826049999999995 -35.733699262449996 -1 1 0
163 1 8 -1.05 4.358013 6.602605 -37.85369826245 -1 0 0
164 1 8 -1.05 4.284343 2.4362749999999984 -37.927370262450005 0 1 0
165 1 8 -1.05 6.404343 0.3162749999999992 -42.09369826245 -1 1 0
166 1 8 -1.05 2.2380129999999996 0.2426049999999993 -33.68736826245 0 1 0
167 1 8 -1.05 6.478013000000001 6.676275 -39.973699262450005 -1 0 0
168 1 8 -1.05 2.1643419999999995 2.3626039999999993 -35.80737126245 0 1 0
169 1 6 1.575 5.381178 5.57944 -32.59053426245 -1 0 0
170 1 7 1.575 3.2611779999999992 3.459439999999999 -26.230535262449997 0 1 0
171 1 6 1.575 1.141178 5.57944 -28.35053426245 0 0 0
172 1 7 1.575 7.5011779999999995 3.459439999999999 -30.47053526245 -1 1 0
173 1 7 1.575 5.381178 1.3394399999999997 -28.35053426245 -1 1 0
174 1 7 1.575 3.2611779999999992 7.699439999999999 -30.47053526245 0 0 0
175 1 6 1.575 1.141178 1.3394399999999997 -32.59053426245 0 1 0
176 1 7 1.575 7.5011779999999995 7.699439999999999 -26.230535262449997 -1 0 0
177 1 7 1.575 8.561178 4.5194399999999995 -33.650533262450004 -1 0 0
178 1 7 1.575 6.441178 6.63944 -29.41053426245 -1 0 0
179 1 7 1.575 2.2011779999999996 2.3994399999999985 -29.41053426245 0 1 0
180 1 6 1.05 2.2011779999999996 0.27943999999999924 -27.290533262449998 0 1 0
181 1 6 1.05 6.441178 0.27943999999999924 -31.53053426245 -1 1 0
182 1 6 1.05 4.321178 2.3994399999999985 -31.53053426245 -1 1 0
183 1 6 1.05 4.321178 6.63944 -27.290533262449998 -1 0 0
184 1 7 1.575 4.321178 0.27943999999999924 -33.650533262450004 -1 1 0
185 1 6 1.05 8.561178 6.63944 -31.53053426245 -1 0 0
186 1 6 1.05 8.561178 2.3994399999999985 -27.290533262449998 -1 1 0
187 1 6 1.05 6.441178 4.5194399999999995 -27.290533262449998 -1 0 0
188 1 6 1.05 2.2011779999999996 4.5194399999999995 -31.53053426245 0 0 0
189 1 7 1.575 4.321178 4.5194399999999995 -29.41053426245 -1 0 0
190 1 7 1.575 2.2011779999999996 6.63944 -33.650533262450004 0 0 0
191 1 7 1.575 6.441178 2.3994399999999985 -33.650533262450004 -1 1 0
192 1 7 1.575 8.561178 0.27943999999999924 -29.41053426245 -1 1 0
193 1 8 -1.05 6.478013000000001 4.4826049999999995 -25.20736926245 -1 1 0
194 1 8 -1.05 2.1643419999999995 4.556274999999999 -33.613699262450005 0 0 0
195 1 8 -1.05 8.524343 6.676275 -29.447368262450002 -1 0 0
196 1 8 -1.05 8.598013 2.3626039999999993 -29.37369926245 -1 1 0
197 1 8 -1.05 4.284343 0.2426049999999993 -27.25369826245 0 1 0
198 1 8 -1.05 4.358013 0.3162749999999992 -31.56736926245 -1 1 0
199 1 8 -1.05 2.2380129999999996 2.4362749999999984 -31.49370026245 0 1 0
200 1 8 -1.05 6.404343 6.602605 -27.32737126245 -1 0 0
201 1 8 -1.05 4.284343 6.676275 -25.20736926245 0 0 0
202 1 8 -1.05 4.358013 2.3626039999999993 -33.613699262450005 -1 1 0
203 1 8 -1.05 8.524343 0.2426049999999993 -31.49370026245 -1 1 0
204 1 8 -1.05 8.598013 0.3162749999999992 -27.32737126245 -1 1 0
205 1 8 -1.05 2.2380129999999996 4.4826049999999995 -29.447368262450002 0 1 0
206 1 8 -1.05 6.404343 4.556274999999999 -29.37369926245 -1 0 0
207 1 8 -1.05 6.478013000000001 2.4362749999999984 -27.25369826245 -1 1 0
208 1 8 -1.05 2.1643419999999995 6.602605 -31.56736926245 0 0 0
209 1 8 -1.05 4.284343 4.4826049999999995 -31.49370026245 0 1 0
210 1 8 -1.05 4.358013 4.556274999999999 -27.32737126245 -1 0 0
211 1 8 -1.05 6.478013000000001 0.2426049999999993 -29.447368262450002 -1 1 0
212 1 8 -1.05 2.1643419999999995 0.3162749999999992 -29.37369926245 0 1 0
213 1 8 -1.05 8.524343 2.4362749999999984 -25.20736926245 -1 1 0
214 1 8 -1.05 8.598013 6.602605 -33.613699262450005 -1 0 0
215 1 8 -1.05 2.2380129999999996 6.676275 -27.25369826245 0 0 0
216 1 8 -1.05 6.404343 2.3626039999999993 -31.56736926245 -1 1 0
217 1 8 -1.05 8.598013 4.556274999999999 -31.56736926245 -1 0 0
218 1 8 -1.05 8.524343 4.4826049999999995 -27.25369826245 -1 1 0
219 1 8 -1.05 4.358013 6.602605 -29.37369926245 -1 0 0
220 1 8 -1.05 4.284343 2.4362749999999984 -29.447368262450002 0 1 0
221 1 8 -1.05 6.404343 0.3162749999999992 -33.613699262450005 -1 1 0
222 1 8 -1.05 2.2380129999999996 0.2426049999999993 -25.20736926245 0 1 0
223 1 8 -1.05 6.478013000000001 6.676275 -31.49370026245 -1 0 0
224 1 8 -1.05 2.1643419999999995 2.3626039999999993 -27.32737126245 0 1 0
225 1 6 1.575 5.381178 5.57944 -24.11053226245 -1 0 0
226 1 6 1.575 3.2611779999999992 3.459439999999999 -17.750536262449998 0 1 0
227 1 6 1.575 1.141178 5.57944 -19.870535262449998 0 0 0
228 1 7 1.575 7.5011779999999995 3.459439999999999 -21.99053326245 -1 1 0
229 1 7 1.575 5.381178 1.3394399999999997 -19.870535262449998 -1 1 0
230 1 6 1.575 3.2611779999999992 7.699439999999999 -21.99053326245 0 0 0
231 1 6 1.575 1.141178 1.3394399999999997 -24.11053226245 0 1 0
232 1 7 1.575 7.5011779999999995 7.699439999999999 -17.750536262449998 -1 0 0
233 1 7 1.575 8.561178 4.5194399999999995 -25.170534262449998 -1 0 0
234 1 7 1.575 6.441178 6.63944 -20.93053226245 -1 0 0
235 1 7 1.575 2.2011779999999996 2.3994399999999985 -20.93053226245 0 1 0
236 1 6 1.05 2.2011779999999996 0.27943999999999924 -18.81053326245 0 1 0
237 1 6 1.05 6.441178 0.27943999999999924 -23.050535262449998 -1 1 0
238 1 6 1.05 4.321178 2.3994399999999985 -23.050535262449998 -1 1 0
239 1 6 1.05 4.321178 6.63944 -18.81053326245 -1 0 0
240 1 7 1.575 4.321178 0.27943999999999924 -25.170534262449998 -1 1 0
241 1 6 1.05 8.561178 6.63944 -23.050535262449998 -1 0 0
242 1 6 1.05 8.561178 2.3994399999999985 -18.81053326245 -1 1 0
243 1 6 1.05 6.441178 4.5194399999999995 -18.81053326245 -1 0 0
244 1 6 1.05 2.2011779999999996 4.5194399999999995 -23.050535262449998 0 0 0
245 1 7 1.575 4.321178 4.5194399999999995 -20.93053226245 -1 0 0
246 1 7 1.575 2.2011779999999996 6.63944 -25.170534262449998 0 0 0
247 1 7 1.575 6.441178 2.3994399999999985 -25.170534262449998 -1 1 0
248 1 7 1.575 8.561178 0.27943999999999924 -20.93053226245 -1 1 0
249 1 8 -1.05 6.478013000000001 4.4826049999999995 -16.727369262450004 -1 1 0
250 1 8 -1.05 2.1643419999999995 4.556274999999999 -25.13369926245 0 0 0
251 1 8 -1.05 8.524343 6.676275 -20.96737126245 -1 0 0
252 1 8 -1.05 8.598013 2.3626039999999993 -20.893697262450004 -1 1 0
253 1 8 -1.05 4.284343 0.2426049999999993 -18.773698262450004 0 1 0
254 1 8 -1.05 4.358013 0.3162749999999992 -23.08737026245 -1 1 0
255 1 8 -1.05 2.2380129999999996 2.4362749999999984 -23.01370026245 0 1 0
256 1 8 -1.05 6.404343 6.602605 -18.84737226245 -1 0 0
257 1 8 -1.05 4.284343 6.676275 -16.727369262450004 0 0 0
258 1 8 -1.05 4.358013 2.3626039999999993 -25.13369926245 -1 1 0
259 1 8 -1.05 8.524343 0.2426049999999993 -23.01370026245 -1 1 0
260 1 8 -1.05 8.598013 0.3162749999999992 -18.84737226245 -1 1 0
261 1 8 -1.05 2.2380129999999996 4.4826049999999995 -20.96737126245 0 1 0
262 1 8 -1.05 6.404343 4.556274999999999 -20.893697262450004 -1 0 0
263 1 8 -1.05 6.478013000000001 2.4362749999999984 -18.773698262450004 -1 1 0
264 1 8 -1.05 2.1643419999999995 6.602605 -23.08737026245 0 0 0
265 1 8 -1.05 4.284343 4.4826049999999995 -23.01370026245 0 1 0
266 1 8 -1.05 4.358013 4.556274999999999 -18.84737226245 -1 0 0
267 1 8 -1.05 6.478013000000001 0.2426049999999993 -20.96737126245 -1 1 0
268 1 8 -1.05 2.1643419999999995 0.3162749999999992 -20.893697262450004 0 1 0
269 1 8 -1.05 8.524343 2.4362749999999984 -16.727369262450004 -1 1 0
270 1 8 -1.05 8.598013 6.602605 -25.13369926245 -1 0 0
271 1 8 -1.05 2.2380129999999996 6.676275 -18.773698262450004 0 0 0
272 1 8 -1.05 6.404343 2.3626039999999993 -23.08737026245 -1 1 0
273 1 8 -1.05 8.598013 4.556274999999999 -23.08737026245 -1 0 0
274 1 8 -1.05 8.524343 4.4826049999999995 -18.773698262450004 -1 1 0
275 1 8 -1.05 4.358013 6.602605 -20.893697262450004 -1 0 0
276 1 8 -1.05 4.284343 2.4362749999999984 -20.96737126245 0 1 0
277 1 8 -1.05 6.404343 0.3162749999999992 -25.13369926245 -1 1 0
278 1 8 -1.05 2.2380129999999996 0.2426049999999993 -16.727369262450004 0 1 0
279 1 8 -1.05 6.478013000000001 6.676275 -23.01370026245 -1 0 0
280 1 8 -1.05 2.1643419999999995 2.3626039999999993 -18.84737226245 0 1 0
281 1 7 1.575 5.381178 5.57944 -15.630533262450001 -1 0 0
282 1 7 1.575 3.2611779999999992 3.459439999999999 -9.270532262450004 0 1 0
283 1 6 1.575 1.141178 5.57944 -11.390535262450001 0 0 0
284 1 7 1.575 7.5011779999999995 3.459439999999999 -13.510534262450001 -1 1 0
285 1 7 1.575 5.381178 1.3394399999999997 -11.390535262450001 -1 1 0
286 1 6 1.575 3.2611779999999992 7.699439999999999 -13.510534262450001 0 0 0
287 1 7 1.575 1.141178 1.3394399999999997 -15.630533262450001 0 1 0
288 1 7 1.575 7.5011779999999995 7.699439999999999 -9.270532262450004 -1 0 0
289 1 7 1.575 8.561178 4.5194399999999995 -16.69053426245 -1 0 0
290 1 7 1.575 6.441178 6.63944 -12.450533262450001 -1 0 0
291 1 7 1.575 2.2011779999999996 2.3994399999999985 -12.450533262450001 0 1 0
292 1 6 1.05 2.2011779999999996 0.27943999999999924 -10.330534262450001 0 1 0
293 1 6 1.05 6.441178 0.27943999999999924 -14.57053526245 -1 1 0
294 1 6 1.05 4.321178 2.3994399999999985 -14.57053526245 -1 1 0
295 1 6 1.05 4.321178 6.63944 -10.330534262450001 -1 0 0
296 1 7 1.575 4.321178 0.27943999999999924 -16.69053426245 -1 1 0
297 1 6 1.05 8.561178 6.63944 -14.57053526245 -1 0 0
298 1 6 1.05 8.561178 2.3994399999999985 -10.330534262450001 -1 1 0
299 1 6 1.05 6.441178 4.5194399999999995 -10.330534262450001 -1 0 0
300 1 6 1.05 2.2011779999999996 4.5194399999999995 -14.57053526245 0 0 0
301 1 7 1.575 4.321178 4.5194399999999995 -12.450533262450001 -1 0 0
302 1 7 1.575 2.2011779999999996 6.63944 -16.69053426245 0 0 0
303 1 7 1.575 6.441178 2.3994399999999985 -16.69053426245 -1 1 0
304 1 7 1.575 8.561178 0.27943999999999924 -12.450533262450001 -1 1 0
305 1 8 -1.05 6.478013000000001 4.4826049999999995 -8.24736926245 -1 1 0
306 1 8 -1.05 2.1643419999999995 4.556274999999999 -16.653700262450002 0 0 0
307 1 8 -1.05 8.524343 6.676275 -12.48736726245 -1 0 0
308 1 8 -1.05 8.598013 2.3626039999999993 -12.413698262449998 -1 1 0
309 1 8 -1.05 4.284343 0.2426049999999993 -10.293699262449998 0 1 0
310 1 8 -1.05 4.358013 0.3162749999999992 -14.607370262450004 -1 1 0
311 1 8 -1.05 2.2380129999999996 2.4362749999999984 -14.533701262450002 0 1 0
312 1 8 -1.05 6.404343 6.602605 -10.36736826245 -1 0 0
313 1 8 -1.05 4.284343 6.676275 -8.24736926245 0 0 0
314 1 8 -1.05 4.358013 2.3626039999999993 -16.653700262450002 -1 1 0
315 1 8 -1.05 8.524343 0.2426049999999993 -14.533701262450002 -1 1 0
316 1 8 -1.05 8.598013 0.3162749999999992 -10.36736826245 -1 1 0
317 1 8 -1.05 2.2380129999999996 4.4826049999999995 -12.48736726245 0 1 0
318 1 8 -1.05 6.404343 4.556274999999999 -12.413698262449998 -1 0 0
319 1 8 -1.05 6.478013000000001 2.4362749999999984 -10.293699262449998 -1 1 0
320 1 8 -1.05 2.1643419999999995 6.602605 -14.607370262450004 0 0 0
321 1 8 -1.05 4.284343 4.4826049999999995 -14.533701262450002 0 1 0
322 1 8 -1.05 4.358013 4.556274999999999 -10.36736826245 -1 0 0
323 1 8 -1.05 6.478013000000001 0.2426049999999993 -12.48736726245 -1 1 0
324 1 8 -1.05 2.1643419999999995 0.3162749999999992 -12.413698262449998 0 1 0
325 1 8 -1.05 8.524343 2.4362749999999984 -8.24736926245 -1 1 0
326 1 8 -1.05 8.598013 6.602605 -16.653700262450002 -1 0 0
327 1 8 -1.05 2.2380129999999996 6.676275 -10.293699262449998 0 0 0
328 1 8 -1.05 6.404343 2.3626039999999993 -14.607370262450004 -1 1 0
329 1 8 -1.05 8.598013 4.556274999999999 -14.607370262450004 -1 0 0
330 1 8 -1.05 8.524343 4.4826049999999995 -10.293699262449998 -1 1 0
331 1 8 -1.05 4.358013 6.602605 -12.413698262449998 -1 0 0
332 1 8 -1.05 4.284343 2.4362749999999984 -12.48736726245 0 1 0
333 1 8 -1.05 6.404343 0.3162749999999992 -16.653700262450002 -1 1 0
334 1 8 -1.05 2.2380129999999996 0.2426049999999993 -8.24736926245 0 1 0
335 1 8 -1.05 6.478013000000001 6.676275 -14.533701262450002 -1 0 0
336 1 8 -1.05 2.1643419999999995 2.3626039999999993 -10.36736826245 0 1 0
337 1 7 1.575 5.381178 5.57944 -7.150533262450004 -1 0 0
338 1 7 1.575 3.2611779999999992 3.459439999999999 -0.7905332624499977 0 1 0
339 1 7 1.575 1.141178 5.57944 -2.9105352624500043 0 0 0
340 1 7 1.575 7.5011779999999995 3.459439999999999 -5.030534262450004 -1 1 0
341 1 7 1.575 5.381178 1.3394399999999997 -2.9105352624500043 -1 1 0
342 1 6 1.575 3.2611779999999992 7.699439999999999 -5.030534262450004 0 0 0
343 1 7 1.575 1.141178 1.3394399999999997 -7.150533262450004 0 1 0
344 1 7 1.575 7.5011779999999995 7.699439999999999 -0.7905332624499977 -1 0 0
345 1 7 1.575 8.561178 4.5194399999999995 -8.210535262450001 -1 0 0
346 1 7 1.575 6.441178 6.63944 -3.9705332624499974 -1 0 0
347 1 7 1.575 2.2011779999999996 2.3994399999999985 -3.9705332624499974 0 1 0
348 1 6 1.05 2.2011779999999996 0.27943999999999924 -1.8505342624499974 0 1 0
349 1 6 1.05 6.441178 0.27943999999999924 -6.0905362624500015 -1 1 0
350 1 6 1.05 4.321178 2.3994399999999985 -6.0905362624500015 -1 1 0
351 1 6 1.05 4.321178 6.63944 -1.8505342624499974 -1 0 0
352 1 7 1.575 4.321178 0.27943999999999924 -8.210535262450001 -1 1 0
353 1 6 1.05 8.561178 6.63944 -6.0905362624500015 -1 0 0
354 1 6 1.05 8.561178 2.3994399999999985 -1.8505342624499974 -1 1 0
355 1 6 1.05 6.441178 4.5194399999999995 -1.8505342624499974 -1 0 0
356 1 6 1.05 2.2011779999999996 4.5194399999999995 -6.0905362624500015 0 0 0
357 1 7 1.575 4.321178 4.5194399999999995 -3.9705332624499974 -1 0 0
358 1 7 1.575 2.2011779999999996 6.63944 -8.210535262450001 0 0 0
359 1 7 1.575 6.441178 2.3994399999999985 -8.210535262450001 -1 1 0
360 1 7 1.575 8.561178 0.27943999999999924 -3.9705332624499974 -1 1 0
361 1 8 -1.05 6.478013000000001 4.4826049999999995 0.23262973754999905 -1 1 0
362 1 8 -1.05 2.1643419999999995 4.556274999999999 -8.173700262449998 0 0 0
363 1 8 -1.05 8.524343 6.676275 -4.007368262450001 -1 0 0
364 1 8 -1.05 8.598013 2.3626039999999993 -3.933698262450001 -1 1 0
365 1 8 -1.05 4.284343 0.2426049999999993 -1.813699262450001 0 1 0
366 1 8 -1.05 4.358013 0.3162749999999992 -6.12737026245 -1 1 0
367 1 8 -1.05 2.2380129999999996 2.4362749999999984 -6.053697262450001 0 1 0
368 1 8 -1.05 6.404343 6.602605 -1.887369262450001 -1 0 0
369 1 8 -1.05 4.284343 6.676275 0.23262973754999905 0 0 0
370 1 8 -1.05 4.358013 2.3626039999999993 -8.173700262449998 -1 1 0
371 1 8 -1.05 8.524343 0.2426049999999993 -6.053697262450001 -1 1 0
372 1 8 -1.05 8.598013 0.3162749999999992 -1.887369262450001 -1 1 0
373 1 8 -1.05 2.2380129999999996 4.4826049999999995 -4.007368262450001 0 1 0
374 1 8 -1.05 6.404343 4.556274999999999 -3.933698262450001 -1 0 0
375 1 8 -1.05 6.478013000000001 2.4362749999999984 -1.813699262450001 -1 1 0
376 1 8 -1.05 2.1643419999999995 6.602605 -6.12737026245 0 0 0
377 1 8 -1.05 4.284343 4.4826049999999995 -6.053697262450001 0 1 0
378 1 8 -1.05 4.358013 4.556274999999999 -1.887369262450001 -1 0 0
379 1 8 -1.05 6.478013000000001 0.2426049999999993 -4.007368262450001 -1 1 0
380 1 8 -1.05 2.1643419999999995 0.3162749999999992 -3.933698262450001 0 1 0
381 1 8 -1.05 8.524343 2.4362749999999984 0.23262973754999905 -1 1 0
382 1 8 -1.05 8.598013 6.602605 -8.173700262449998 -1 0 0
383 1 8 -1.05 2.2380129999999996 6.676275 -1.813699262450001 0 0 0
384 1 8 -1.05 6.404343 2.3626039999999993 -6.12737026245 -1 1 0
385 1 8 -1.05 8.598013 4.556274999999999 -6.12737026245 -1 0 0
386 1 8 -1.05 8.524343 4.4826049999999995 -1.813699262450001 -1 1 0
387 1 8 -1.05 4.358013 6.602605 -3.933698262450001 -1 0 0
388 1 8 -1.05 4.284343 2.4362749999999984 -4.007368262450001 0 1 0
389 1 8 -1.05 6.404343 0.3162749999999992 -8.173700262449998 -1 1 0
390 1 8 -1.05 2.2380129999999996 0.2426049999999993 0.23262973754999905 0 1 0
391 1 8 -1.05 6.478013000000001 6.676275 -6.053697262450001 -1 0 0
392 1 8 -1.05 2.1643419999999995 2.3626039999999993 -1.887369262450001 0 1 0
393 1 7 1.575 5.381178 5.57944 1.3294657375500023 -1 0 0
394 1 6 1.575 3.2611779999999992 3.459439999999999 7.689462737550002 0 1 0
395 1 6 1.575 1.141178 5.57944 5.569467737549999 0 0 0
396 1 7 1.575 7.5011779999999995 3.459439999999999 3.4494647375500023 -1 1 0
397 1 6 1.575 5.381178 1.3394399999999997 5.569467737549999 -1 1 0
398 1 6 1.575 3.2611779999999992 7.699439999999999 3.4494647375500023 0 0 0
399 1 7 1.575 1.141178 1.3394399999999997 1.3294657375500023 0 1 0
400 1 7 1.575 7.5011779999999995 7.699439999999999 7.689462737550002 -1 0 0
401 1 7 1.575 8.561178 4.5194399999999995 0.26946473755000255 -1 0 0
402 1 7 1.575 6.441178 6.63944 4.5094667375499995 -1 0 0
403 1 7 1.575 2.2011779999999996 2.3994399999999985 4.5094667375499995 0 1 0
404 1 6 1.05 2.2011779999999996 0.27943999999999924 6.629464737549995 0 1 0
405 1 6 1.05 6.441178 0.27943999999999924 2.3894677375499995 -1 1 0
406 1 6 1.05 4.321178 2.3994399999999985 2.3894677375499995 -1 1 0
407 1 6 1.05 4.321178 6.63944 6.629464737549995 -1 0 0
408 1 7 1.575 4.321178 0.27943999999999924 0.26946473755000255 -1 1 0
409 1 6 1.05 8.561178 6.63944 2.3894677375499995 -1 0 0
410 1 6 1.05 8.561178 2.3994399999999985 6.629464737549995 -1 1 0
411 1 6 1.05 6.441178 4.5194399999999995 6.629464737549995 -1 0 0
412 1 6 1.05 2.2011779999999996 4.5194399999999995 2.3894677375499995 0 0 0
413 1 7 1.575 4.321178 4.5194399999999995 4.5094667375499995 -1 0 0
414 1 7 1.575 2.2011779999999996 6.63944 0.26946473755000255 0 0 0
415 1 7 1.575 6.441178 2.3994399999999985 0.26946473755000255 -1 1 0
416 1 7 1.575 8.561178 0.27943999999999924 4.5094667375499995 -1 1 0
417 1 8 -1.05 6.478013000000001 4.4826049999999995 8.712632737549995 -1 1 0
418 1 8 -1.05 2.1643419999999995 4.556274999999999 0.30629973754999895 0 0 0
419 1 8 -1.05 8.524343 6.676275 4.472631737549996 -1 0 0
420 1 8 -1.05 8.598013 2.3626039999999993 4.546300737549998 -1 1 0
421 1 8 -1.05 4.284343 0.2426049999999993 6.6662997375500055 0 1 0
422 1 8 -1.05 4.358013 0.3162749999999992 2.352632737549996 -1 1 0
423 1 8 -1.05 2.2380129999999996 2.4362749999999984 2.4263017375499984 0 1 0
424 1 8 -1.05 6.404343 6.602605 6.592630737549996 -1 0 0
425 1 8 -1.05 4.284343 6.676275 8.712632737549995 0 0 0
426 1 8 -1.05 4.358013 2.3626039999999993 0.30629973754999895 -1 1 0
427 1 8 -1.05 8.524343 0.2426049999999993 2.4263017375499984 -1 1 0
428 1 8 -1.05 8.598013 0.3162749999999992 6.592630737549996 -1 1 0
429 1 8 -1.05 2.2380129999999996 4.4826049999999995 4.472631737549996 0 1 0
430 1 8 -1.05 6.404343 4.556274999999999 4.546300737549998 -1 0 0
431 1 8 -1.05 6.478013000000001 2.4362749999999984 6.6662997375500055 -1 1 0
432 1 8 -1.05 2.1643419999999995 6.602605 2.352632737549996 0 0 0
433 1 8 -1.05 4.284343 4.4826049999999995 2.4263017375499984 0 1 0
434 1 8 -1.05 4.358013 4.556274999999999 6.592630737549996 -1 0 0