LAMMPS data file via write_data, version 17 Feb 2022, timestep = 0

465 atoms
10 atom types
3 bonds
6 bond types
3 angles
6 angle types
0 dihedrals
2 dihedral types
1 impropers
2 improper types

0.239999 8.719999 xlo xhi
0.239999 8.719999 ylo yhi
-100 100 zlo zhi

Masses

1 12.011
2 1.008
3 15.9994
4 15.9994
5 1.008
6 55.845
7 55.845
8 15.9994
9 15.9994
10 1.008

Pair Coeffs # lj/cut/coul/cut

1 0.0988 3.31521
2 0.0161 2.4473
3 0.1463 3.04812
4 0.093 3.24287
5 0.0047 0.537925
6 9.0298e-07 4.9062
7 9.0298e-07 4.9062
8 0.1554 3.16554
9 0.1554 3.16554
10 0 0

Bond Coeffs # harmonic

1 361.8 1.105
2 652.57 1.218
3 383.13 1.351
4 563.51 0.973
5 554.135 1
6 0 2.08

Angle Coeffs # harmonic

1 51.617 106.55
2 65.93 123.65
3 65.262 109.49
4 115.745 122.1
5 118.817 130.25
6 30 109.47

Dihedral Coeffs # fourier

1 1 2.3 2 180
2 2 2.3 2 180 1.9 1 0

Improper Coeffs # cvff

1 10.5 -1 2
2 10.5 -1 2

Atoms # full

1 1 7 1.575 0.258417 4.498417 17.229463737550006 0 0 0
2 1 7 1.575 6.618417 2.378417 17.229463737550006 0 0 0
3 1 7 1.575 2.378417 6.618417 17.229463737550006 0 0 0
4 1 7 1.575 4.498417 0.258417 17.229463737550006 0 0 0
5 1 8 -1.05 6.581581 0.295252 17.266298737550002 0 0 0
6 1 8 -1.05 0.295252 6.581581 17.266298737550002 0 0 0
7 1 8 -1.05 4.535252 2.341582 17.266298737550002 0 0 0
8 1 8 -1.05 2.341582 4.535252 17.266298737550002 0 0 0
9 1 8 -1.05 6.581581 6.581581 15.072625737549998 0 0 0
10 1 8 -1.05 2.415252 2.415252 10.906297737550005 0 0 0
11 1 8 -1.05 6.655252 4.461582 17.192628737549995 0 0 0
12 1 8 -1.05 2.341582 4.535252 8.786302737550002 0 0 0
13 1 8 -1.05 8.701582 6.655252 12.952630737549995 0 0 0
14 1 8 -1.05 0.295252 2.341582 13.026300737550002 0 0 0
15 1 8 -1.05 4.461582 8.701582 15.14630373755 0 0 0
16 1 8 -1.05 4.535252 0.295252 10.832628737549996 0 0 0
17 1 8 -1.05 2.341582 6.581581 10.832628737549996 0 0 0
18 1 8 -1.05 6.655252 2.415252 15.14630373755 0 0 0
19 1 8 -1.05 4.535252 2.341582 8.786302737550002 0 0 0
20 1 8 -1.05 4.461582 6.655252 17.192628737549995 0 0 0
21 1 8 -1.05 6.581581 4.535252 13.026300737550002 0 0 0
22 1 8 -1.05 2.415252 4.461582 12.952630737549995 0 0 0
23 1 8 -1.05 0.295252 0.295252 15.072625737549998 0 0 0
24 1 8 -1.05 8.701582 8.701582 10.906297737550005 0 0 0
25 1 8 -1.05 2.415252 8.701582 -50.64736926245 0 0 0
26 1 8 -1.05 6.581581 2.341582 10.832628737549996 0 0 0
27 1 8 -1.05 2.415252 6.655252 15.14630373755 0 0 0
28 1 8 -1.05 2.341582 0.295252 13.026300737550002 0 0 0
29 1 8 -1.05 6.655252 8.701582 12.952630737549995 0 0 0
30 1 8 -1.05 4.535252 4.535252 15.072625737549998 0 0 0
31 1 8 -1.05 4.461582 4.461582 10.906297737550005 0 0 0
32 1 8 -1.05 0.295252 6.581581 8.786302737550002 0 0 0
33 1 8 -1.05 8.701582 2.415252 -50.64736926245 0 0 0
34 1 8 -1.05 8.701582 2.415252 17.192628737549995 0 0 0
35 1 8 -1.05 2.341582 2.341582 15.072625737549998 0 0 0
36 1 8 -1.05 6.655252 6.655252 10.906297737550005 0 0 0
37 1 8 -1.05 0.295252 4.535252 10.832628737549996 0 0 0
38 1 8 -1.05 8.701582 4.461582 15.14630373755 0 0 0
39 1 8 -1.05 4.535252 6.581581 13.026300737550002 0 0 0
40 1 8 -1.05 4.461582 2.415252 12.952630737549995 0 0 0
41 1 8 -1.05 6.581581 0.295252 8.786302737550002 0 0 0
42 1 8 -1.05 2.415252 8.701582 17.192628737549995 0 0 0
43 1 7 1.575 4.498417 4.498417 12.989465737550006 0 0 0
44 1 7 1.575 2.378417 6.618417 8.749467737550006 0 0 0
45 1 8 -1.05 4.461582 6.655252 -50.64736926245 0 0 0
46 1 7 1.575 6.618417 2.378417 8.749467737550006 0 0 0
47 1 7 1.575 0.258417 0.258417 12.989465737550006 0 0 0
48 1 6 1.05 6.618417 0.258417 10.869462737549995 0 0 0
49 1 7 1.575 2.378417 0.258417 15.109468737550003 0 0 0
50 1 7 1.575 4.498417 6.618417 15.109468737550003 0 0 0
51 1 6 1.05 4.498417 2.378417 10.869462737549995 0 0 0
52 1 7 1.575 0.258417 4.498417 8.749467737550006 0 0 0
53 1 7 1.575 0.258417 2.378417 15.109468737550003 0 0 0
54 1 8 -1.05 6.655252 4.461582 -50.64736926245 0 0 0
55 1 6 1.05 0.258417 6.618417 10.869462737549995 0 0 0
56 1 6 1.05 2.378417 4.498417 10.869462737549995 0 0 0
57 1 7 1.575 1.318417 1.318417 -49.55053426245 0 0 0
58 1 6 1.575 7.678417 7.678417 -43.19053426245 0 0 0
59 1 7 1.575 5.558417 1.318417 -45.31053426245 0 0 0
60 1 6 1.575 3.438417 7.678417 -47.43053426245 0 0 0
61 1 7 1.575 1.318417 5.558417 -45.31053426245 0 0 0
62 1 7 1.575 7.678417 3.438417 -47.43053426245 0 0 0
63 1 6 1.575 5.558417 5.558417 -49.55053426245 0 0 0
64 1 7 1.575 3.438417 3.438417 -43.19053426245 0 0 0
65 1 7 1.575 4.498417 0.258417 -50.61053426245 0 0 0
66 1 7 1.575 2.378417 2.378417 -46.37053426245 0 0 0
67 1 7 1.575 6.618417 6.618417 -46.37053426245 0 0 0
68 1 6 1.05 6.618417 4.498417 -44.25053426245 0 0 0
69 1 7 1.575 2.378417 4.498417 -48.490534262450005 0 0 0
70 1 7 1.575 0.258417 6.618417 -48.490534262450005 0 0 0
71 1 6 1.05 0.258417 2.378417 -44.25053426245 0 0 0
72 1 7 1.575 0.258417 4.498417 -50.61053426245 0 0 0
73 1 7 1.575 4.498417 2.378417 -48.490534262450005 0 0 0
74 1 6 1.05 4.498417 6.618417 -44.25053426245 0 0 0
75 1 6 1.05 2.378417 0.258417 -44.25053426245 0 0 0
76 1 7 1.575 6.618417 0.258417 -48.490534262450005 0 0 0
77 1 7 1.575 0.258417 0.258417 -46.37053426245 0 0 0
78 1 7 1.575 6.618417 2.378417 -50.61053426245 0 0 0
79 1 7 1.575 2.378417 6.618417 -50.61053426245 0 0 0
80 1 7 1.575 4.498417 4.498417 -46.37053426245 0 0 0
81 1 8 -1.05 2.415252 8.701582 -42.16737026245 0 0 0
82 1 8 -1.05 6.581581 0.295252 -50.57369926245 0 0 0
83 1 8 -1.05 4.461582 2.415252 -46.40736926245 0 0 0
84 1 8 -1.05 4.535252 6.581581 -46.333699262450004 0 0 0
85 1 8 -1.05 8.701582 4.461582 -44.21369926245 0 0 0
86 1 8 -1.05 0.295252 4.535252 -48.52736926245 0 0 0
87 1 8 -1.05 6.655252 6.655252 -48.45369926245 0 0 0
88 1 8 -1.05 2.341582 2.341582 -44.287370262450004 0 0 0
89 1 8 -1.05 8.701582 2.415252 -42.16737026245 0 0 0
90 1 8 -1.05 0.295252 6.581581 -50.57369926245 0 0 0
91 1 8 -1.05 4.461582 4.461582 -48.45369926245 0 0 0
92 1 8 -1.05 4.535252 4.535252 -44.287370262450004 0 0 0
93 1 8 -1.05 6.655252 8.701582 -46.40736926245 0 0 0
94 1 8 -1.05 2.341582 0.295252 -46.333699262450004 0 0 0
95 1 8 -1.05 2.415252 6.655252 -44.21369926245 0 0 0
96 1 8 -1.05 6.581581 2.341582 -48.52736926245 0 0 0
97 1 8 -1.05 8.701582 8.701582 -48.45369926245 0 0 0
98 1 8 -1.05 0.295252 0.295252 -44.287370262450004 0 0 0
99 1 8 -1.05 2.415252 4.461582 -46.40736926245 0 0 0
100 1 8 -1.05 6.581581 4.535252 -46.333699262450004 0 0 0
101 1 8 -1.05 4.461582 6.655252 -42.16737026245 0 0 0
102 1 8 -1.05 4.535252 2.341582 -50.57369926245 0 0 0
103 1 8 -1.05 6.655252 2.415252 -44.21369926245 0 0 0
104 1 8 -1.05 2.341582 6.581581 -48.52736926245 0 0 0
105 1 8 -1.05 4.535252 0.295252 -48.52736926245 0 0 0
106 1 8 -1.05 4.461582 8.701582 -44.21369926245 0 0 0
107 1 8 -1.05 0.295252 2.341582 -46.333699262450004 0 0 0
108 1 8 -1.05 8.701582 6.655252 -46.40736926245 0 0 0
109 1 8 -1.05 2.341582 4.535252 -50.57369926245 0 0 0
110 1 8 -1.05 6.655252 4.461582 -42.16737026245 0 0 0
111 1 8 -1.05 2.415252 2.415252 -48.45369926245 0 0 0
112 1 8 -1.05 6.581581 6.581581 -44.287370262450004 0 0 0
113 1 7 1.575 1.318417 1.318417 -41.070533262450006 0 0 0
114 1 6 1.575 7.678417 7.678417 -34.71053526245 0 0 0
115 1 6 1.575 5.558417 1.318417 -36.83053426245 0 0 0
116 1 7 1.575 3.438417 7.678417 -38.95053426245 0 0 0
117 1 6 1.575 1.318417 5.558417 -36.83053426245 0 0 0
118 1 7 1.575 7.678417 3.438417 -38.95053426245 0 0 0
119 1 7 1.575 5.558417 5.558417 -41.070533262450006 0 0 0
120 1 7 1.575 3.438417 3.438417 -34.71053526245 0 0 0
121 1 7 1.575 4.498417 0.258417 -42.13053526245 0 0 0
122 1 7 1.575 2.378417 2.378417 -37.89053326245 0 0 0
123 1 7 1.575 6.618417 6.618417 -37.89053326245 0 0 0
124 1 6 1.05 6.618417 4.498417 -35.77053426245 0 0 0
125 1 6 1.05 2.378417 4.498417 -40.01053426245 0 0 0
126 1 6 1.05 0.258417 6.618417 -40.01053426245 0 0 0
127 1 6 1.05 0.258417 2.378417 -35.77053426245 0 0 0
128 1 7 1.575 0.258417 4.498417 -42.13053526245 0 0 0
129 1 6 1.05 4.498417 2.378417 -40.01053426245 0 0 0
130 1 6 1.05 4.498417 6.618417 -35.77053426245 0 0 0
131 1 6 1.05 2.378417 0.258417 -35.77053426245 0 0 0
132 1 6 1.05 6.618417 0.258417 -40.01053426245 0 0 0
133 1 7 1.575 0.258417 0.258417 -37.89053326245 0 0 0
134 1 7 1.575 6.618417 2.378417 -42.13053526245 0 0 0
135 1 7 1.575 2.378417 6.618417 -42.13053526245 0 0 0
136 1 7 1.575 4.498417 4.498417 -37.89053326245 0 0 0
137 1 8 -1.05 2.415252 8.701582 -33.68736826245 0 0 0
138 1 8 -1.05 6.581581 0.295252 -42.09369826245 0 0 0
139 1 8 -1.05 4.461582 2.415252 -37.927370262450005 0 0 0
140 1 8 -1.05 4.535252 6.581581 -37.85369826245 0 0 0
141 1 8 -1.05 8.701582 4.461582 -35.733699262449996 0 0 0
142 1 8 -1.05 0.295252 4.535252 -40.04736926245 0 0 0
143 1 8 -1.05 6.655252 6.655252 -39.973699262450005 0 0 0
144 1 8 -1.05 2.341582 2.341582 -35.80737126245 0 0 0
145 1 8 -1.05 8.701582 2.415252 -33.68736826245 0 0 0
146 1 8 -1.05 0.295252 6.581581 -42.09369826245 0 0 0
147 1 8 -1.05 4.461582 4.461582 -39.973699262450005 0 0 0
148 1 8 -1.05 4.535252 4.535252 -35.80737126245 0 0 0
149 1 8 -1.05 6.655252 8.701582 -37.927370262450005 0 0 0
150 1 8 -1.05 2.341582 0.295252 -37.85369826245 0 0 0
151 1 8 -1.05 2.415252 6.655252 -35.733699262449996 0 0 0
152 1 8 -1.05 6.581581 2.341582 -40.04736926245 0 0 0
153 1 8 -1.05 8.701582 8.701582 -39.973699262450005 0 0 0
154 1 8 -1.05 0.295252 0.295252 -35.80737126245 0 0 0
155 1 8 -1.05 2.415252 4.461582 -37.927370262450005 0 0 0
156 1 8 -1.05 6.581581 4.535252 -37.85369826245 0 0 0
157 1 8 -1.05 4.461582 6.655252 -33.68736826245 0 0 0
158 1 8 -1.05 4.535252 2.341582 -42.09369826245 0 0 0
159 1 8 -1.05 6.655252 2.415252 -35.733699262449996 0 0 0
160 1 8 -1.05 2.341582 6.581581 -40.04736926245 0 0 0
161 1 8 -1.05 4.535252 0.295252 -40.04736926245 0 0 0
162 1 8 -1.05 4.461582 8.701582 -35.733699262449996 0 0 0
163 1 8 -1.05 0.295252 2.341582 -37.85369826245 0 0 0
164 1 8 -1.05 8.701582 6.655252 -37.927370262450005 0 0 0
165 1 8 -1.05 2.341582 4.535252 -42.09369826245 0 0 0
166 1 8 -1.05 6.655252 4.461582 -33.68736826245 0 0 0
167 1 8 -1.05 2.415252 2.415252 -39.973699262450005 0 0 0
168 1 8 -1.05 6.581581 6.581581 -35.80737126245 0 0 0
169 1 6 1.575 1.318417 1.318417 -32.59053426245 0 0 0
170 1 7 1.575 7.678417 7.678417 -26.230535262449997 0 0 0
171 1 6 1.575 5.558417 1.318417 -28.35053426245 0 0 0
172 1 7 1.575 3.438417 7.678417 -30.47053526245 0 0 0
173 1 7 1.575 1.318417 5.558417 -28.35053426245 0 0 0
174 1 7 1.575 7.678417 3.438417 -30.47053526245 0 0 0
175 1 6 1.575 5.558417 5.558417 -32.59053426245 0 0 0
176 1 7 1.575 3.438417 3.438417 -26.230535262449997 0 0 0
177 1 7 1.575 4.498417 0.258417 -33.650533262450004 0 0 0
178 1 7 1.575 2.378417 2.378417 -29.41053426245 0 0 0
179 1 7 1.575 6.618417 6.618417 -29.41053426245 0 0 0
180 1 6 1.05 6.618417 4.498417 -27.290533262449998 0 0 0
181 1 6 1.05 2.378417 4.498417 -31.53053426245 0 0 0
182 1 6 1.05 0.258417 6.618417 -31.53053426245 0 0 0
183 1 6 1.05 0.258417 2.378417 -27.290533262449998 0 0 0
184 1 7 1.575 0.258417 4.498417 -33.650533262450004 0 0 0
185 1 6 1.05 4.498417 2.378417 -31.53053426245 0 0 0
186 1 6 1.05 4.498417 6.618417 -27.290533262449998 0 0 0
187 1 6 1.05 2.378417 0.258417 -27.290533262449998 0 0 0
188 1 6 1.05 6.618417 0.258417 -31.53053426245 0 0 0
189 1 7 1.575 0.258417 0.258417 -29.41053426245 0 0 0
190 1 7 1.575 6.618417 2.378417 -33.650533262450004 0 0 0
191 1 7 1.575 2.378417 6.618417 -33.650533262450004 0 0 0
192 1 7 1.575 4.498417 4.498417 -29.41053426245 0 0 0
193 1 8 -1.05 2.415252 8.701582 -25.20736926245 0 0 0
194 1 8 -1.05 6.581581 0.295252 -33.613699262450005 0 0 0
195 1 8 -1.05 4.461582 2.415252 -29.447368262450002 0 0 0
196 1 8 -1.05 4.535252 6.581581 -29.37369926245 0 0 0
197 1 8 -1.05 8.701582 4.461582 -27.25369826245 0 0 0
198 1 8 -1.05 0.295252 4.535252 -31.56736926245 0 0 0
199 1 8 -1.05 6.655252 6.655252 -31.49370026245 0 0 0
200 1 8 -1.05 2.341582 2.341582 -27.32737126245 0 0 0
201 1 8 -1.05 8.701582 2.415252 -25.20736926245 0 0 0
202 1 8 -1.05 0.295252 6.581581 -33.613699262450005 0 0 0
203 1 8 -1.05 4.461582 4.461582 -31.49370026245 0 0 0
204 1 8 -1.05 4.535252 4.535252 -27.32737126245 0 0 0
205 1 8 -1.05 6.655252 8.701582 -29.447368262450002 0 0 0
206 1 8 -1.05 2.341582 0.295252 -29.37369926245 0 0 0
207 1 8 -1.05 2.415252 6.655252 -27.25369826245 0 0 0
208 1 8 -1.05 6.581581 2.341582 -31.56736926245 0 0 0
209 1 8 -1.05 8.701582 8.701582 -31.49370026245 0 0 0
210 1 8 -1.05 0.295252 0.295252 -27.32737126245 0 0 0
211 1 8 -1.05 2.415252 4.461582 -29.447368262450002 0 0 0
212 1 8 -1.05 6.581581 4.535252 -29.37369926245 0 0 0
213 1 8 -1.05 4.461582 6.655252 -25.20736926245 0 0 0
214 1 8 -1.05 4.535252 2.341582 -33.613699262450005 0 0 0
215 1 8 -1.05 6.655252 2.415252 -27.25369826245 0 0 0
216 1 8 -1.05 2.341582 6.581581 -31.56736926245 0 0 0
217 1 8 -1.05 4.535252 0.295252 -31.56736926245 0 0 0
218 1 8 -1.05 4.461582 8.701582 -27.25369826245 0 0 0
219 1 8 -1.05 0.295252 2.341582 -29.37369926245 0 0 0
220 1 8 -1.05 8.701582 6.655252 -29.447368262450002 0 0 0
221 1 8 -1.05 2.341582 4.535252 -33.613699262450005 0 0 0
222 1 8 -1.05 6.655252 4.461582 -25.20736926245 0 0 0
223 1 8 -1.05 2.415252 2.415252 -31.49370026245 0 0 0
224 1 8 -1.05 6.581581 6.581581 -27.32737126245 0 0 0
225 1 6 1.575 1.318417 1.318417 -24.11053226245 0 0 0
226 1 6 1.575 7.678417 7.678417 -17.750536262449998 0 0 0
227 1 6 1.575 5.558417 1.318417 -19.870535262449998 0 0 0
228 1 7 1.575 3.438417 7.678417 -21.99053326245 0 0 0
229 1 7 1.575 1.318417 5.558417 -19.870535262449998 0 0 0
230 1 6 1.575 7.678417 3.438417 -21.99053326245 0 0 0
231 1 6 1.575 5.558417 5.558417 -24.11053226245 0 0 0
232 1 7 1.575 3.438417 3.438417 -17.750536262449998 0 0 0
233 1 7 1.575 4.498417 0.258417 -25.170534262449998 0 0 0
234 1 7 1.575 2.378417 2.378417 -20.93053226245 0 0 0
235 1 7 1.575 6.618417 6.618417 -20.93053226245 0 0 0
236 1 6 1.05 6.618417 4.498417 -18.81053326245 0 0 0
237 1 6 1.05 2.378417 4.498417 -23.050535262449998 0 0 0
238 1 6 1.05 0.258417 6.618417 -23.050535262449998 0 0 0
239 1 6 1.05 0.258417 2.378417 -18.81053326245 0 0 0
240 1 7 1.575 0.258417 4.498417 -25.170534262449998 0 0 0
241 1 6 1.05 4.498417 2.378417 -23.050535262449998 0 0 0
242 1 6 1.05 4.498417 6.618417 -18.81053326245 0 0 0
243 1 6 1.05 2.378417 0.258417 -18.81053326245 0 0 0
244 1 6 1.05 6.618417 0.258417 -23.050535262449998 0 0 0
245 1 7 1.575 0.258417 0.258417 -20.93053226245 0 0 0
246 1 7 1.575 6.618417 2.378417 -25.170534262449998 0 0 0
247 1 7 1.575 2.378417 6.618417 -25.170534262449998 0 0 0
248 1 7 1.575 4.498417 4.498417 -20.93053226245 0 0 0
249 1 8 -1.05 2.415252 8.701582 -16.727369262450004 0 0 0
250 1 8 -1.05 6.581581 0.295252 -25.13369926245 0 0 0
251 1 8 -1.05 4.461582 2.415252 -20.96737126245 0 0 0
252 1 8 -1.05 4.535252 6.581581 -20.893697262450004 0 0 0
253 1 8 -1.05 8.701582 4.461582 -18.773698262450004 0 0 0
254 1 8 -1.05 0.295252 4.535252 -23.08737026245 0 0 0
255 1 8 -1.05 6.655252 6.655252 -23.01370026245 0 0 0
256 1 8 -1.05 2.341582 2.341582 -18.84737226245 0 0 0
257 1 8 -1.05 8.701582 2.415252 -16.727369262450004 0 0 0
258 1 8 -1.05 0.295252 6.581581 -25.13369926245 0 0 0
259 1 8 -1.05 4.461582 4.461582 -23.01370026245 0 0 0
260 1 8 -1.05 4.535252 4.535252 -18.84737226245 0 0 0
261 1 8 -1.05 6.655252 8.701582 -20.96737126245 0 0 0
262 1 8 -1.05 2.341582 0.295252 -20.893697262450004 0 0 0
263 1 8 -1.05 2.415252 6.655252 -18.773698262450004 0 0 0
264 1 8 -1.05 6.581581 2.341582 -23.08737026245 0 0 0
265 1 8 -1.05 8.701582 8.701582 -23.01370026245 0 0 0
266 1 8 -1.05 0.295252 0.295252 -18.84737226245 0 0 0
267 1 8 -1.05 2.415252 4.461582 -20.96737126245 0 0 0
268 1 8 -1.05 6.581581 4.535252 -20.893697262450004 0 0 0
269 1 8 -1.05 4.461582 6.655252 -16.727369262450004 0 0 0
270 1 8 -1.05 4.535252 2.341582 -25.13369926245 0 0 0
271 1 8 -1.05 6.655252 2.415252 -18.773698262450004 0 0 0
272 1 8 -1.05 2.341582 6.581581 -23.08737026245 0 0 0
273 1 8 -1.05 4.535252 0.295252 -23.08737026245 0 0 0
274 1 8 -1.05 4.461582 8.701582 -18.773698262450004 0 0 0
275 1 8 -1.05 0.295252 2.341582 -20.893697262450004 0 0 0
276 1 8 -1.05 8.701582 6.655252 -20.96737126245 0 0 0
277 1 8 -1.05 2.341582 4.535252 -25.13369926245 0 0 0
278 1 8 -1.05 6.655252 4.461582 -16.727369262450004 0 0 0
279 1 8 -1.05 2.415252 2.415252 -23.01370026245 0 0 0
280 1 8 -1.05 6.581581 6.581581 -18.84737226245 0 0 0
281 1 7 1.575 1.318417 1.318417 -15.630533262450001 0 0 0
282 1 7 1.575 7.678417 7.678417 -9.270532262450004 0 0 0
283 1 6 1.575 5.558417 1.318417 -11.390535262450001 0 0 0
284 1 7 1.575 3.438417 7.678417 -13.510534262450001 0 0 0
285 1 7 1.575 1.318417 5.558417 -11.390535262450001 0 0 0
286 1 6 1.575 7.678417 3.438417 -13.510534262450001 0 0 0
287 1 7 1.575 5.558417 5.558417 -15.630533262450001 0 0 0
288 1 7 1.575 3.438417 3.438417 -9.270532262450004 0 0 0
289 1 7 1.575 4.498417 0.258417 -16.69053426245 0 0 0
290 1 7 1.575 2.378417 2.378417 -12.450533262450001 0 0 0
291 1 7 1.575 6.618417 6.618417 -12.450533262450001 0 0 0
292 1 6 1.05 6.618417 4.498417 -10.330534262450001 0 0 0
293 1 6 1.05 2.378417 4.498417 -14.57053526245 0 0 0
294 1 6 1.05 0.258417 6.618417 -14.57053526245 0 0 0
295 1 6 1.05 0.258417 2.378417 -10.330534262450001 0 0 0
296 1 7 1.575 0.258417 4.498417 -16.69053426245 0 0 0
297 1 6 1.05 4.498417 2.378417 -14.57053526245 0 0 0
298 1 6 1.05 4.498417 6.618417 -10.330534262450001 0 0 0
299 1 6 1.05 2.378417 0.258417 -10.330534262450001 0 0 0
300 1 6 1.05 6.618417 0.258417 -14.57053526245 0 0 0
301 1 7 1.575 0.258417 0.258417 -12.450533262450001 0 0 0
302 1 7 1.575 6.618417 2.378417 -16.69053426245 0 0 0
303 1 7 1.575 2.378417 6.618417 -16.69053426245 0 0 0
304 1 7 1.575 4.498417 4.498417 -12.450533262450001 0 0 0
305 1 8 -1.05 2.415252 8.701582 -8.24736926245 0 0 0
306 1 8 -1.05 6.581581 0.295252 -16.653700262450002 0 0 0
307 1 8 -1.05 4.461582 2.415252 -12.48736726245 0 0 0
308 1 8 -1.05 4.535252 6.581581 -12.413698262449998 0 0 0
309 1 8 -1.05 8.701582 4.461582 -10.293699262449998 0 0 0
310 1 8 -1.05 0.295252 4.535252 -14.607370262450004 0 0 0
311 1 8 -1.05 6.655252 6.655252 -14.533701262450002 0 0 0
312 1 8 -1.05 2.341582 2.341582 -10.36736826245 0 0 0
313 1 8 -1.05 8.701582 2.415252 -8.24736926245 0 0 0
314 1 8 -1.05 0.295252 6.581581 -16.653700262450002 0 0 0
315 1 8 -1.05 4.461582 4.461582 -14.533701262450002 0 0 0
316 1 8 -1.05 4.535252 4.535252 -10.36736826245 0 0 0
317 1 8 -1.05 6.655252 8.701582 -12.48736726245 0 0 0
318 1 8 -1.05 2.341582 0.295252 -12.413698262449998 0 0 0
319 1 8 -1.05 2.415252 6.655252 -10.293699262449998 0 0 0
320 1 8 -1.05 6.581581 2.341582 -14.607370262450004 0 0 0
321 1 8 -1.05 8.701582 8.701582 -14.533701262450002 0 0 0
322 1 8 -1.05 0.295252 0.295252 -10.36736826245 0 0 0
323 1 8 -1.05 2.415252 4.461582 -12.48736726245 0 0 0
324 1 8 -1.05 6.581581 4.535252 -12.413698262449998 0 0 0
325 1 8 -1.05 4.461582 6.655252 -8.24736926245 0 0 0
326 1 8 -1.05 4.535252 2.341582 -16.653700262450002 0 0 0
327 1 8 -1.05 6.655252 2.415252 -10.293699262449998 0 0 0
328 1 8 -1.05 2.341582 6.581581 -14.607370262450004 0 0 0
329 1 8 -1.05 4.535252 0.295252 -14.607370262450004 0 0 0
330 1 8 -1.05 4.461582 8.701582 -10.293699262449998 0 0 0
331 1 8 -1.05 0.295252 2.341582 -12.413698262449998 0 0 0
332 1 8 -1.05 8.701582 6.655252 -12.48736726245 0 0 0
333 1 8 -1.05 2.341582 4.535252 -16.653700262450002 0 0 0
334 1 8 -1.05 6.655252 4.461582 -8.24736926245 0 0 0
335 1 8 -1.05 2.415252 2.415252 -14.533701262450002 0 0 0
336 1 8 -1.05 6.581581 6.581581 -10.36736826245 0 0 0
337 1 7 1.575 1.318417 1.318417 -7.150533262450004 0 0 0
338 1 7 1.575 7.678417 7.678417 -0.7905332624499981 0 0 0
339 1 7 1.575 5.558417 1.318417 -2.9105352624500047 0 0 0
340 1 7 1.575 3.438417 7.678417 -5.030534262450004 0 0 0
341 1 7 1.575 1.318417 5.558417 -2.9105352624500047 0 0 0
342 1 6 1.575 7.678417 3.438417 -5.030534262450004 0 0 0
343 1 7 1.575 5.558417 5.558417 -7.150533262450004 0 0 0
344 1 7 1.575 3.438417 3.438417 -0.7905332624499981 0 0 0
345 1 7 1.575 4.498417 0.258417 -8.210535262450001 0 0 0
346 1 7 1.575 2.378417 2.378417 -3.970533262449998 0 0 0
347 1 7 1.575 6.618417 6.618417 -3.970533262449998 0 0 0
348 1 6 1.05 6.618417 4.498417 -1.8505342624499979 0 0 0
349 1 6 1.05 2.378417 4.498417 -6.0905362624500015 0 0 0
350 1 6 1.05 0.258417 6.618417 -6.0905362624500015 0 0 0
351 1 6 1.05 0.258417 2.378417 -1.8505342624499979 0 0 0
352 1 7 1.575 0.258417 4.498417 -8.210535262450001 0 0 0
353 1 6 1.05 4.498417 2.378417 -6.0905362624500015 0 0 0
354 1 6 1.05 4.498417 6.618417 -1.8505342624499979 0 0 0
355 1 6 1.05 2.378417 0.258417 -1.8505342624499979 0 0 0
356 1 6 1.05 6.618417 0.258417 -6.0905362624500015 0 0 0
357 1 7 1.575 0.258417 0.258417 -3.970533262449998 0 0 0
358 1 7 1.575 6.618417 2.378417 -8.210535262450001 0 0 0
359 1 7 1.575 2.378417 6.618417 -8.210535262450001 0 0 0
360 1 7 1.575 4.498417 4.498417 -3.970533262449998 0 0 0
361 1 8 -1.05 2.415252 8.701582 0.2326297375499986 0 0 0
362 1 8 -1.05 6.581581 0.295252 -8.173700262449998 0 0 0
363 1 8 -1.05 4.461582 2.415252 -4.007368262450001 0 0 0
364 1 8 -1.05 4.535252 6.581581 -3.9336982624500014 0 0 0
365 1 8 -1.05 8.701582 4.461582 -1.8136992624500015 0 0 0
366 1 8 -1.05 0.295252 4.535252 -6.12737026245 0 0 0
367 1 8 -1.05 6.655252 6.655252 -6.053697262450001 0 0 0
368 1 8 -1.05 2.341582 2.341582 -1.8873692624500014 0 0 0
369 1 8 -1.05 8.701582 2.415252 0.2326297375499986 0 0 0
370 1 8 -1.05 0.295252 6.581581 -8.173700262449998 0 0 0
371 1 8 -1.05 4.461582 4.461582 -6.053697262450001 0 0 0
372 1 8 -1.05 4.535252 4.535252 -1.8873692624500014 0 0 0
373 1 8 -1.05 6.655252 8.701582 -4.007368262450001 0 0 0
374 1 8 -1.05 2.341582 0.295252 -3.9336982624500014 0 0 0
375 1 8 -1.05 2.415252 6.655252 -1.8136992624500015 0 0 0
376 1 8 -1.05 6.581581 2.341582 -6.12737026245 0 0 0
377 1 8 -1.05 8.701582 8.701582 -6.053697262450001 0 0 0
378 1 8 -1.05 0.295252 0.295252 -1.8873692624500014 0 0 0
379 1 8 -1.05 2.415252 4.461582 -4.007368262450001 0 0 0
380 1 8 -1.05 6.581581 4.535252 -3.9336982624500014 0 0 0
381 1 8 -1.05 4.461582 6.655252 0.2326297375499986 0 0 0
382 1 8 -1.05 4.535252 2.341582 -8.173700262449998 0 0 0
383 1 8 -1.05 6.655252 2.415252 -1.8136992624500015 0 0 0
384 1 8 -1.05 2.341582 6.581581 -6.12737026245 0 0 0
385 1 8 -1.05 4.535252 0.295252 -6.12737026245 0 0 0
386 1 8 -1.05 4.461582 8.701582 -1.8136992624500015 0 0 0
387 1 8 -1.05 0.295252 2.341582 -3.9336982624500014 0 0 0
388 1 8 -1.05 8.701582 6.655252 -4.007368262450001 0 0 0
389 1 8 -1.05 2.341582 4.535252 -8.173700262449998 0 0 0
390 1 8 -1.05 6.655252 4.461582 0.2326297375499986 0 0 0
391 1 8 -1.05 2.415252 2.415252 -6.053697262450001 0 0 0
392 1 8 -1.05 6.581581 6.581581 -1.8873692624500014 0 0 0
393 1 7 1.575 1.318417 1.318417 1.3294657375500019 0 0 0
394 1 6 1.575 7.678417 7.678417 7.689462737550002 0 0 0
395 1 6 1.575 5.558417 1.318417 5.569467737549999 0 0 0
396 1 7 1.575 3.438417 7.678417 3.449464737550002 0 0 0
397 1 6 1.575 1.318417 5.558417 5.569467737549999 0 0 0
398 1 6 1.575 7.678417 3.438417 3.449464737550002 0 0 0
399 1 7 1.575 5.558417 5.558417 1.3294657375500019 0 0 0
400 1 7 1.575 3.438417 3.438417 7.689462737550002 0 0 0
401 1 7 1.575 4.498417 0.258417 0.2694647375500021 0 0 0
402 1 7 1.575 2.378417 2.378417 4.5094667375499995 0 0 0
403 1 7 1.575 6.618417 6.618417 4.5094667375499995 0 0 0
404 1 6 1.05 6.618417 4.498417 6.629464737549995 0 0 0
405 1 6 1.05 2.378417 4.498417 2.389467737549999 0 0 0
406 1 6 1.05 0.258417 6.618417 2.389467737549999 0 0 0
407 1 6 1.05 0.258417 2.378417 6.629464737549995 0 0 0
408 1 7 1.575 0.258417 4.498417 0.2694647375500021 0 0 0
409 1 6 1.05 4.498417 2.378417 2.389467737549999 0 0 0
410 1 6 1.05 4.498417 6.618417 6.629464737549995 0 0 0
411 1 6 1.05 2.378417 0.258417 6.629464737549995 0 0 0
412 1 6 1.05 6.618417 0.258417 2.389467737549999 0 0 0
413 1 7 1.575 0.258417 0.258417 4.5094667375499995 0 0 0
414 1 7 1.575 6.618417 2.378417 0.2694647375500021 0 0 0
415 1 7 1.575 2.378417 6.618417 0.2694647375500021 0 0 0
416 1 7 1.575 4.498417 4.498417 4.5094667375499995 0 0 0
417 1 8 -1.05 2.415252 8.701582 8.712632737549995 0 0 0
418 1 8 -1.05 6.581581 0.295252 0.3062997375499985 0 0 0
419 1 8 -1.05 4.461582 2.415252 4.472631737549996 0 0 0
420 1 8 -1.05 4.535252 6.581581 4.546300737549998 0 0 0
421 1 8 -1.05 8.701582 4.461582 6.6662997375500055 0 0 0
422 1 8 -1.05 0.295252 4.535252 2.3526327375499956 0 0 0
423 1 8 -1.05 6.655252 6.655252 2.426301737549998 0 0 0
424 1 8 -1.05 2.341582 2.341582 6.592630737549996 0 0 0
425 1 8 -1.05 8.701582 2.415252 8.712632737549995 0 0 0
426 1 8 -1.05 0.295252 6.581581 0.3062997375499985 0 0 0
427 1 8 -1.05 4.461582 4.461582 2.426301737549998 0 0 0
428 1 8 -1.05 4.535252 4.535252 6.592630737549996 0 0 0
429 1 8 -1.05 6.655252 8.701582 4.472631737549996 0 0 0
430 1 8 -1.05 2.341582 0.295252 4.546300737549998 0 0 0
431 1 8 -1.05 2.415252 6.655252 6.6662997375500055 0 0 0
432 1 8 -1.05 6.581581 2.341582 2.3526327375499956 0 0 0
433 1 8 -1.05 8.701582 8.701582 2.426301737549998 0 0 0
434 1 8 -1.05 0.295252 0.295252 6.592630737549996 0 0 0
435 1 8 -1.05 2.415252 4.461582 4.472631737549996 0 0 0
436 1 8 -1.05 6.581581 4.535252 4.546300737549998 0 0 0
437 1 8 -1.05 4.461582 6.655252 8.712632737549995 0 0 0
438 1 8 -1.05 4.535252 2.341582 0.3062997375499985 0 0 0
439 1 8 -1.05 6.655252 2.415252 6.6662997375500055 0 0 0
440 1 8 -1.05 2.341582 6.581581 2.3526327375499956 0 0 0
441 1 8 -1.05 4.535252 0.295252 2.3526327375499956 0 0 0
442 1 8 -1.05 4.461582 8.701582 6.6662997375500055 0 0 0
443 1 8 -1.05 0.295252 2.341582 4.546300737549998 0 0 0
444 1 8 -1.05 8.701582 6.655252 4.472631737549996 0 0 0
445 1 8 -1.05 2.341582 4.535252 0.3062997375499985 0 0 0
446 1 8 -1.05 6.655252 4.461582 8.712632737549995 0 0 0
447 1 8 -1.05 2.415252 2.415252 2.426301737549998 0 0 0
448 1 8 -1.05 6.581581 6.581581 6.592630737549996 0 0 0
449 1 6 1.575 1.318417 1.318417 9.80946573755 0 0 0
450 1 7 1.575 7.678417 7.678417 16.16946573755 0 0 0
451 1 6 1.575 5.558417 1.318417 14.049463737549999 0 0 0
452 1 7 1.575 3.438417 7.678417 11.929467737549999 0 0 0
453 1 7 1.575 1.318417 5.558417 14.049463737549999 0 0 0
454 1 7 1.575 7.678417 3.438417 11.929467737549999 0 0 0
455 1 7 1.575 5.558417 5.558417 9.80946573755 0 0 0
456 1 6 1.575 3.438417 3.438417 16.16946573755 0 0 0
457 1 7 1.575 4.498417 0.258417 8.749467737550006 0 0 0
458 1 7 1.575 2.378417 2.378417 12.989465737550006 0 0 0
459 1 7 1.575 6.618417 6.618417 12.989465737550006 0 0 0
460 1 7 1.575 6.618417 4.498417 15.109468737550003 0 0 0
461 0 1 0.731 1.318 5.558 19.808 0 0 0
462 0 2 -0.123 1.318 5.558 20.908 0 0 0
463 0 3 -0.804 2.378 6.618 19.108 0 0 0
464 0 3 -0.804 0.258 4.498 19.108 0 0 0
465 0 10 0.425 5.3 5.7 17.7 0 0 0

Velocities

1 0 0 0
2 0 0 0
3 0 0 0
4 0 0 0
5 0 0 0
6 0 0 0
7 0 0 0
8 0 0 0
9 0 0 0
10 0 0 0
11 0 0 0
12 0 0 0
13 0 0 0
14 0 0 0
15 0 0 0
16 0 0 0
17 0 0 0
18 0 0 0
19 0 0 0
20 0 0 0
21 0 0 0
22 0 0 0
23 0 0 0
24 0 0 0
25 0 0 0
26 0 0 0
27 0 0 0
28 0 0 0
29 0 0 0
30 0 0 0
31 0 0 0
32 0 0 0
33 0 0 0
34 0 0 0
35 0 0 0
36 0 0 0
37 0 0 0
38 0 0 0
39 0 0 0
40 0 0 0
41 0 0 0
42 0 0 0
43 0 0 0
44 0 0 0
45 0 0 0
46 0 0 0
47 0 0 0
48 0 0 0
49 0 0 0
50 0 0 0
51 0 0 0
52 0 0 0
53 0 0 0
54 0 0 0
55 0 0 0
56 0 0 0
57 0 0 0
58 0 0 0
59 0 0 0
60 0 0 0
61 0 0 0
62 0 0 0
63 0 0 0
64 0 0 0
65 0 0 0
66 0 0 0
67 0 0 0
68 0 0 0
69 0 0 0
70 0 0 0
71 0 0 0
72 0 0 0
73 0 0 0
74 0 0 0
75 0 0 0
76 0 0 0
77 0 0 0
78 0 0 0
79 0 0 0
80 0 0 0
81 0 0 0
82 0 0 0
83 0 0 0
84 0 0 0
85 0 0 0
86 0 0 0
87 0 0 0
88 0 0 0
89 0 0 0
90 0 0 0
91 0 0 0
92 0 0 0
93 0 0 0
94 0 0 0
95 0 0 0
96 0 0 0
97 0 0 0
98 0 0 0
99 0 0 0
100 0 0 0
101 0 0 0
102 0 0 0
103 0 0 0
104 0 0 0
105 0 0 0
106 0 0 0
107 0 0 0
108 0 0 0
109 0 0 0
110 0 0 0
111 0 0 0
112 0 0 0
113 0 0 0
114 0 0 0
115 0 0 0
116 0 0 0
117 0 0 0
118 0 0 0
119 0 0 0
120 0 0 0
121 0 0 0
122 0 0 0
123 0 0 0
124 0 0 0
125 0 0 0
126 0 0 0
127 0 0 0
128 0 0 0
129 0 0 0
130 0 0 0
131 0 0 0
132 0 0 0
133 0 0 0
134 0 0 0
135 0 0 0
136 0 0 0
137 0 0 0
138 0 0 0
139 0 0 0
140 0 0 0
141 0 0 0
142 0 0 0
143 0 0 0
144 0 0 0
145 0 0 0
146 0 0 0
147 0 0 0
148 0 0 0
149 0 0 0
150 0 0 0
151 0 0 0
152 0 0 0
153 0 0 0
154 0 0 0
155 0 0 0
156 0 0 0
157 0 0 0
158 0 0 0
159 0 0 0
160 0 0 0
161 0 0 0
162 0 0 0
163 0 0 0
164 0 0 0
165 0 0 0
166 0 0 0
167 0 0 0
168 0 0 0
169 0 0 0
170 0 0 0
171 0 0 0
172 0 0 0
173 0 0 0
174 0 0 0
175 0 0 0
176 0 0 0
177 0 0 0
178 0 0 0
179 0 0 0
180 0 0 0
181 0 0 0
182 0 0 0
183 0 0 0
184 0 0 0
185 0 0 0
186 0 0 0
187 0 0 0
188 0 0 0
189 0 0 0
190 0 0 0
191 0 0 0
192 0 0 0
193 0 0 0
194 0 0 0
195 0 0 0
196 0 0 0
197 0 0 0
198 0 0 0
199 0 0 0
200 0 0 0
201 0 0 0
202 0 0 0
203 0 0 0
204 0 0 0
205 0 0 0
206 0 0 0
207 0 0 0
208 0 0 0
209 0 0 0
210 0 0 0
211 0 0 0
212 0 0 0
213 0 0 0
214 0 0 0
215 0 0 0
216 0 0 0
217 0 0 0
218 0 0 0
219 0 0 0
220 0 0 0
221 0 0 0
222 0 0 0
223 0 0 0
224 0 0 0
225 0 0 0
226 0 0 0
227 0 0 0
228 0 0 0
229 0 0 0
230 0 0 0
231 0 0 0
232 0 0 0
233 0 0 0
234 0 0 0
235 0 0 0
236 0 0 0
237 0 0 0
238 0 0 0
239 0 0 0
240 0 0 0
241 0 0 0
242 0 0 0
243 0 0 0
244 0 0 0
245 0 0 0
246 0 0 0
247 0 0 0
248 0 0 0
249 0 0 0
250 0 0 0
251 0 0 0
252 0 0 0
253 0 0 0
254 0 0 0
255 0 0 0
256 0 0 0
257 0 0 0
258 0 0 0
259 0 0 0
260 0 0 0
261 0 0 0
262 0 0 0
263 0 0 0
264 0 0 0
265 0 0 0
266 0 0 0
267 0 0 0
268 0 0 0
269 0 0 0
270 0 0 0
271 0 0 0
272 0 0 0
273 0 0 0
274 0 0 0
275 0 0 0
276 0 0 0
277 0 0 0
278 0 0 0
279 0 0 0
280 0 0 0
281 0 0 0
282 0 0 0
283 0 0 0
284 0 0 0
285 0 0 0
286 0 0 0
287 0 0 0
288 0 0 0
289 0 0 0
290 0 0 0
291 0 0 0
292 0 0 0
293 0 0 0
294 0 0 0
295 0 0 0
296 0 0 0
297 0 0 0
298 0 0 0
299 0 0 0
300 0 0 0
301 0 0 0
302 0 0 0
303 0 0 0
304 0 0 0
305 0 0 0
306 0 0 0
307 0 0 0
308 0 0 0
309 0 0 0
310 0 0 0
311 0 0 0
312 0 0 0
313 0 0 0
314 0 0 0
315 0 0 0
316 0 0 0
317 0 0 0
318 0 0 0
319 0 0 0
320 0 0 0
321 0 0 0
322 0 0 0
323 0 0 0
324 0 0 0
325 0 0 0
326 0 0 0
327 0 0 0
328 0 0 0
329 0 0 0
330 0 0 0
331 0 0 0
332 0 0 0
333 0 0 0
334 0 0 0
335 0 0 0
336 0 0 0
337 0 0 0
338 0 0 0
339 0 0 0
340 0 0 0
341 0 0 0
342 0 0 0
343 0 0 0
344 0 0 0