LAMMPS data file via write_data, version 10 Feb 2021, timestep = 1171

129 atoms
15 atom types
4 bonds
7 bond types
4 angles
7 angle types
0 dihedrals
2 dihedral types
1 impropers
2 improper types

0 8.48 xlo xhi
0 8.48 ylo yhi
0 100 zlo zhi

Masses

1 12.011
2 1.008
3 15.9994
4 15.9994
5 1.008
6 55.845
7 55.845
8 15.9994
9 12.011
10 15.9994
11 15.9994
12 1.008
13 55.845
14 15.9994
15 1.008

Pair Coeffs # lj/charmm/coul/long

1 0.098 3.02906 0.098 3.02906
2 0.046 1.60362 0.046 1.60362
3 0.12 3.02906 0.12 2.49452
4 0.1921 3.14487 0.1921 3.14487
5 0.046 0.400014 0.046 0.400014
6 9.0298e-07 4.07222 0 0
7 9.0298e-07 4.07222 0 0
8 0.1554 3.16554 0 0
9 0.07 3.56359 0.07 3.56359
10 0.12 3.02906 0.12 3.02906
11 0.1554 3.1655 0 0
12 0 0 0 0
13 9.0298e-07 4.07222 0 0
14 0.1554 3.1655 0 0
15 0 0 0 0

Bond Coeffs # harmonic

1 348 1.096
2 750 1.22
3 230 1.4
4 545 0.96
5 238 1.1422
6 525 1.26
7 554.135 1

Angle Coeffs # charmm

1 55 115 0 0
2 39 119 0 0
3 47 105 0 0
4 50 123 210 2.262
5 45 116 0 0
6 100 128 70 2.2587
7 30 109.47 0 0

Dihedral Coeffs # charmm

1 3.45 2 180 1
2 2.05 2 180 1

Improper Coeffs # harmonic

1 75 0
2 67 0

Atoms # full

1 0 7 1.575 1.368729042439225 1.2928344635124625 2.233355790456729 0 0 0
2 0 7 1.575 7.750791821865069 7.669199453666982 7.918946571890183 0 0 0
3 0 7 1.575 5.621819516505285 1.1814684215437659 6.075645758929513 0 0 0
4 0 7 1.575 3.5074987275083784 7.607504512151015 4.41110290361294 0 0 0
5 0 7 1.575 1.3809267276110304 5.549269678312473 6.005186908337802 0 0 0
6 0 7 1.575 7.73889809278133 3.448126260280239 4.199381452092463 0 0 0
7 0 7 1.575 5.963150984504334 6.581988646098669 1.694395676400451 0 0 0
8 0 7 1.575 3.4580488316811038 3.403731824922608 7.900678311698145 0 0 0
9 0 7 1.575 4.448423557618942 0.3224991673467071 1.535734998898394 0 0 0
10 0 6 1.05 2.0041247197718057 2.6863684466836664 5.156134850573002 0 0 0
11 0 6 1.05 6.421356845266849 6.971346411344912 5.051793032891001 0 0 0
12 0 6 1.05 6.9771660444857675 4.867660904698886 6.8973151922655855 0 0 0
13 0 7 1.575 2.9174714580801564 4.796185238257234 3.30158346858113 0 0 0
14 0 7 1.575 0.011793913840823986 6.272949726525076 3.2070194388560296 0 0 0
15 0 7 1.575 8.463161685615761 2.014182101086809 6.935245374223395 -1 0 0
16 0 7 1.575 0.7790620211251594 4.123494993441552 1.5230197378763164 0 0 0
17 0 7 1.575 4.033648755796707 1.934291081494929 3.470512628092584 0 0 0
18 0 7 1.575 4.2976991538384075 6.240919235032551 6.965633949502211 0 0 0
19 0 6 1.05 2.52164737730024 0.5474011839091897 6.949833474342418 0 0 0
20 0 7 1.575 6.993965934681801 0.709303519338489 3.124097713498977 0 0 0
21 0 6 1.05 0.5884801835884037 8.397569093621698 5.049164522513713 0 -1 0
22 0 7 1.575 5.611656381047701 3.501547953739991 2.052141438539422 0 0 0
23 0 7 1.575 2.4750684661814364 6.943378570657371 1.5676513772643017 0 0 0
24 0 7 1.575 4.941505076551271 4.022979635772248 5.17996987166195 0 0 0
25 0 8 -1.05 2.464976544474739 0.4484147909267488 8.780407934093923 0 1 0
26 0 8 -1.05 6.25652856952538 0.042174113003892844 1.6646110338427975 0 0 0
27 0 8 -1.05 4.660262645133534 2.281952903994065 5.085828800761964 0 0 0
28 0 8 -1.05 4.615023501882095 6.630283380242569 5.300379159587509 0 0 0
29 0 8 -1.05 0.3267788409169339 4.6871221552634506 7.094787758760541 1 0 0
30 0 8 -1.05 0.12133037882593664 4.49028246528067 3.1146208603303362 0 0 0
31 0 8 -1.05 6.7938963705986675 6.601904665589501 3.2675141472776077 0 0 0
32 0 8 -1.05 2.470844955569467 2.4083840103784055 6.88943772093634 0 0 0
33 0 8 -1.05 0.2759950000407308 2.267134598966863 8.66220138012171 1 0 0
34 0 8 -1.05 0.7470966440706722 6.545737379595679 1.646778318885389 0 0 0
35 0 8 -1.05 4.541980263968849 4.184516644007674 3.4270677768718167 0 0 0
36 0 8 -1.05 4.44041172011764 4.43247438119586 6.816555342273651 0 0 0
37 0 8 -1.05 6.579143510314604 0.3429716130256055 4.869907057487734 0 1 0
38 0 8 -1.05 2.383009304397395 0.11984503099379311 5.22180075459974 0 0 0
39 0 8 -1.05 2.532501128173268 6.415200369236777 6.987946082452828 0 0 0
40 0 8 -1.05 6.726265804923306 2.500092142722578 3.130506261295362 0 0 0
41 0 8 -1.05 0.22480142172785908 0.4177857466195817 3.233990031242769 1 1 0
42 0 8 -1.05 0.21694437816610718 0.26073122476171906 6.887852042453364 0 0 0
43 0 8 -1.05 2.3280202936860133 4.497236908035628 4.939327265873456 0 0 0
44 0 8 -1.05 6.6317989298143525 4.3453268522472515 5.192399040094982 0 0 0
45 0 8 -1.05 4.547059807644767 6.4046045557945055 8.679973801837276 0 0 0
46 0 8 -1.05 4.562728199430485 2.134367544849354 1.7520239949603584 0 0 0
47 0 8 -1.05 6.696154514720354 2.1586537616313035 7.027104878662401 0 0 0
48 0 8 -1.05 2.7710263027770097 6.53333354798041 3.292216566301716 0 0 0
49 0 8 -1.05 4.3235137113660596 0.2310556690693775 3.380194708028527 0 0 0
50 0 8 -1.05 4.51649798208958 0.34407649721965444 7.126550922457121 0 1 0
51 0 8 -1.05 0.21884525884438003 2.5083556210837976 5.2772522329390865 0 0 0
52 0 8 -1.05 0.47385281578090926 6.548507589293953 4.881193863575402 1 0 0
53 0 8 -1.05 2.4176935931487664 4.5434074093349 1.6788165686797063 0 0 0
54 0 8 -1.05 6.736804160681538 4.652121886251539 8.728045857059486 0 0 0
55 0 8 -1.05 2.3575530956403483 2.244054467239863 3.401103308538928 0 0 0
56 0 8 -1.05 6.806379011489518 6.684015763938119 6.849925005706899 0 0 0
57 0 7 1.575 1.3294379275943902 1.3755010476434189 9.72704900108627 0 0 0
60 0 7 1.575 3.482851337876129 7.70513657247897 11.618668622380078 0 0 0
62 0 7 1.575 7.774927613018311 3.437478101448526 11.65033370611466 0 0 0
63 0 7 1.575 5.624198731641773 5.544268699010236 9.737836946816913 0 0 0
65 0 7 1.575 4.23085813231745 0.5575111899240661 8.847390861959543 0 0 0
69 0 6 1.05 2.0794310188502214 4.151543927445212 10.661209597704346 0 0 0
70 0 7 1.575 0.6627175899208007 7.0246903677533545 10.661065685669016 0 0 0
72 0 7 1.575 0.028436967923149988 4.784530739699615 8.845494571913147 0 0 0
73 0 7 1.575 4.9210019255946404 2.7737121724331075 10.647823691610897 0 0 0
76 0 6 1.05 6.333685060992584 8.334879166399404 10.641973379236068 0 -1 0
78 0 6 1.05 6.921749461350906 2.0490567636312793 8.892647087384292 0 0 0
79 0 6 1.05 2.6737779473325416 6.282684516612929 8.865581167336575 0 0 0
82 0 8 -1.05 6.745506528354913 0.21341612591210293 8.90702691050417 0 0 0
86 0 8 -1.05 0.2804499197421368 4.3430869146627495 10.522958955848866 0 0 0
87 0 8 -1.05 6.553658173911044 6.556891808574197 10.754941039226882 0 0 0
90 0 8 -1.05 0.23535052148718622 6.59338162119009 8.989338293608679 0 0 0
91 0 8 -1.05 4.6786651810248685 4.501483789224991 10.82238976133378 0 0 0
96 0 8 -1.05 6.637725098101025 2.5626685823242115 10.62835017094175 0 0 0
97 0 8 -1.05 0.44343695408164113 0.26427141848608754 10.726592930392982 1 1 0
102 0 8 -1.05 4.439598853550293 2.366642855236844 8.999792843841842 0 0 0
104 0 8 -1.05 2.4080067922051533 6.7899905466296655 10.59994033528569 0 0 0
105 0 8 -1.05 4.494261878615431 0.12020898156496229 10.52030610677763 0 0 0
109 0 8 -1.05 2.518924729921609 4.444854368156318 8.922556781116914 0 0 0
111 0 8 -1.05 2.279063198271284 2.3368733069526235 10.830694023139495 0 0 0
113 0 8 -1.05 6.227802280310093 4.903703467498861 1.325269980306622 0 0 0
114 0 8 -1.05 4.308859092712526 6.973533448791017 1.2003354243985704 0 0 0
115 0 8 -1.05 0.5665367311192195 2.4741461531775037 1.303319555645032 1 0 0
116 0 8 -1.05 2.513891297877006 0.23676502683009712 1.4729646358082384 0 1 0
93 0 8 -1.05 6.622097323693828 0.3601301167139047 12.341182645227017 0 1 0
108 0 8 -1.05 0.36793155435253994 6.5078557512844775 12.293686927725913 1 0 0
83 0 8 -1.05 4.465339488001759 2.2639916784463825 12.27648584150251 0 0 0
99 0 8 -1.05 2.4856359081301953 4.627600906332565 12.389779351103318 0 0 0
58 0 7 1.575 7.674929983590238 7.640277228945587 15.329566395458288 0 0 0
59 0 7 1.575 5.589521159083978 1.3431965224748634 13.271353625005986 0 0 0
61 0 7 1.575 1.3567019292849862 5.558765125959951 13.362933466310778 0 0 0
64 0 7 1.575 3.5867844644762927 3.420624177864244 15.358017118105623 0 0 0
129 1 12 0.475 4.72305894948499 6.5780097127574235 17.025610074640493 0 -1 0
128 2 10 -0.76 0.3519395271015376 4.859127863460166 18.286158661999913 0 -1 0
68 0 7 1.575 6.388919594454767 4.224176471875814 14.337141785672225 0 0 0
71 0 7 1.575 0.744291544123768 2.81037890877282 14.432086395962674 0 0 0
74 0 13 1.575 4.881893797623544 6.990628247140329 14.372917276884234 0 0 0
75 0 7 1.575 1.9591786907049384 8.348761301821755 14.346635759013203 0 -1 0
127 2 10 -0.76 2.024521428351696 6.2498296272412555 18.100445157581106 0 -1 0
126 2 2 0 1.6634434374897642 5.421181904149745 19.855917953353636 0 -1 0
81 0 8 -1.05 2.5763125328642227 0.27597215853055623 15.881294613892003 0 1 0
125 2 9 0.52 1.305223824919808 5.501232654056692 18.76371864220648 0 -1 0
84 0 8 -1.05 4.370819599920802 6.613852491014416 12.674931302780445 0 0 0
85 0 8 -1.05 0.3985380269633666 4.490105049903144 14.274711944285336 1 0 0
88 0 8 -1.05 2.472034980042811 2.54132073591435 14.184540725324757 0 0 0
89 0 8 -1.05 0.014504563569876458 2.4522773288616473 15.935409756631783 1 0 0
92 0 8 -1.05 4.611386910038032 4.398517690562438 14.165488625383981 0 0 0
124 0 7 1.575 8.179048895526096 4.887964809157457 16.73678907954833 -1 0 0
100 0 8 -1.05 6.763947884594635 4.485749015202349 12.621978327621234 0 0 0
95 0 8 -1.05 2.2256793774386425 6.6341120827313365 14.40048536050796 0 0 0
98 0 8 -1.05 0.25396968622165306 0.06834233029931812 14.248708055632797 0 0 0
123 0 7 1.575 6.823480188759208 2.0467620614402935 15.975924905016978 0 0 0
122 0 13 1.575 2.0326817505126966 6.202506480404943 16.356734707537704 0 0 0
101 1 11 -1.05 4.504136843168442 6.966993658271095 16.090273232129622 0 0 0
103 0 8 -1.05 6.463243830425737 2.4291539118249847 14.276440881255613 0 0 0
106 0 8 -1.05 4.689782453349545 0.26705537354413816 14.271196821844947 0 1 0
107 0 8 -1.05 0.26681055144210997 2.395189801148976 12.692880703920261 0 0 0
121 0 13 1.575 4.269885100577118 0.4950700904806685 16.0225265805987 0 0 0
110 0 8 -1.05 6.7181412078276574 4.382538082020744 16.034868174138122 0 0 0
112 0 8 -1.05 6.589027224787065 6.670909707639592 14.284602776458698 0 0 0
117 0 8 -1.05 2.5844863534603246 4.591979617919529 16.076615667380633 0 0 0
118 0 8 -1.05 4.583063108125402 2.2047174717995506 16.135624554485954 0 0 0
119 0 8 -1.05 0.2084547496700416 6.458440927295153 16.15393816026632 0 0 0
120 0 8 -1.05 6.667812639870668 0.3405861345144551 16.12268093567528 0 0 0
94 0 8 -1.05 2.518997391706773 0.28589613427575566 12.677186520824048 0 0 0
80 0 7 1.575 4.201852623974752 4.883246656215582 12.508410795471573 0 0 0
66 0 7 1.575 2.7094311576154317 2.0361659632295876 12.507672973970838 0 0 0
67 0 6 1.05 7.046273666773676 6.324877278284727 12.504019806403262 0 0 0
77 0 6 1.05 8.385996158173059 0.6005861332386402 12.50379689557211 -1 0 0

Velocities

1 5.946083347578076e-12 6.494041073369747e-12 1.6041330248305735e-12
2 -7.086307692809962e-12 -1.552914388162057e-11 1.01515948753601e-11
3 -6.4100134155546815e-12 -2.809537569140019e-12 -4.620725452979108e-12
4 -2.8432213115960317e-14 1.1191071267023272e-11 -3.0639134594333014e-12
5 -1.068894235421725e-11 5.057317326609984e-12 3.210129379872819e-12
6 -3.745535978725585e-12 1.1025104423628176e-11 -1.1357232523289821e-11
7 -2.714953194362221e-14 -6.743077844648488e-14 -4.095125998982376e-12
8 6.53782035288721e-13 -2.5559145150339054e-12 8.176965501834705e-12
9 -2.716788860649716e-12 3.0356872118016293e-12 -3.2427327544851436e-12
10 2.642429051358952e-12 4.121078651700656e-13 8.89803201170245e-13
11 -3.925111027413704e-12 -1.2061125713624737e-12 -1.5983472590054278e-11
12 2.806052578548588e-13 1.5701853069646785e-12 1.8851096804104366e-12
13 1.1496338332122252e-11 -4.9833778567363005e-12 1.396102743926723e-12
14 2.624878658017234e-12 -4.8826912360013216e-12 -6.700554885324601e-12
15 -5.458755613401356e-13 -8.81900978084402e-13 6.877683346326491e-12
16 1.6911277297992001e-12 5.090828828225352e-12 5.706558564492557e-12
17 -3.4442110000123496e-12 -1.0002351965996946e-13 3.3027636377757335e-12
18 -1.993598591919881e-13 3.786072194050809e-12 -9.903827554661108e-12
19 6.719510882127606e-13 4.950240961527362e-12 -1.4268851535165508e-11
20 2.2827454218046057e-12 8.84906250748049e-12 6.070747870902848e-12
21 7.1731797385316495e-12 -3.1742200003904533e-13 -4.440698117584993e-12
22 5.459627833115301e-13 4.1022930249052705e-12 -7.928683920550517e-12
23 4.1445693886747206e-13 -1.0492783740992105e-11 4.4528262585449e-13
24 8.733723718290215e-12 1.2109119878754982e-11 -1.1466340941365585e-11
25 2.579490122968549e-11 3.640747812124247e-12 6.47341253495803e-11
26 -1.4813610092756934e-12 2.0708654524804537e-11 8.524148398512211e-12
27 1.895271485766693e-11 -1.943287298792773e-11 2.91607365750917e-11
28 -1.3712363201982089e-12 -2.4040235574186018e-11 1.1099572459588058e-11
29 7.119973977917056e-12 2.0470603650006517e-11 3.3019173784705645e-12
30 1.3453427844317057e-11 -4.063886151292915e-11 1.533165686902917e-11
31 -2.6043846404368855e-12 1.4529145321949486e-11 1.7134632523479963e-11
32 -2.5386678475766724e-11 -3.870649441173876e-11 -3.769036498776064e-12
33 1.1498150894841383e-11 -3.0372062440301224e-11 -1.4092969140922024e-11
34 1.1330530653850951e-11 -6.546001808718608e-12 3.119730850455127e-11
35 -4.008756521231769e-11 2.375054271347716e-11 2.746004995208547e-11
36 9.05726463229202e-12 3.614191958674561e-11 4.3606487896601605e-12
37 3.154403512186409e-11 -3.4571409151296593e-12 1.5775379226260236e-11
38 -1.898514692527387e-11 1.8186751059855937e-12 3.71859375441491e-11
39 7.046643149618489e-13 7.47959705372225e-12 8.036787170655195e-12
40 3.27435665984266e-11 -2.910825903688132e-11 4.156711326886477e-12
41 -2.9538521732175586e-11 3.160271316135732e-13 4.8004653885744105e-12
42 -1.4686715321356734e-11 3.789851500736015e-11 -1.4237528545075626e-11
43 2.6509251292721623e-11 -2.5578208550792877e-11 -3.763448557807337e-11
44 -4.986943236744315e-11 1.0757615132041444e-11 2.8730352156620022e-11
45 -2.607965137582705e-11 -1.0193900813760161e-11 -1.3424221728943844e-11
46 2.665140355483342e-11 -1.0019700647891248e-11 -1.2786165453190389e-11
47 3.0855325189936934e-11 2.1206794154095678e-11 -3.281716049525046e-11
48 -2.6552022152366886e-12 3.8738335882847185e-12 -1.1801970858199351e-11
49 3.1598622308223728e-12 8.259428145739854e-12 3.881611701629389e-12
50 -1.875680223260157e-11 7.365033254207197e-12 -5.88755560002779e-12
51 6.844514005253659e-13 -2.8085586736271972e-11 -1.501948589138739e-11
52 -7.093254515385531e-12 2.065538787452374e-12 1.3803260579762511e-11
53 -3.1483832640277285e-11 -2.281280117116619e-12 -1.058131994298252e-11
54 1.1280129811901632e-12 -3.3200410639013383e-12 -4.210585171396278e-11
55 -3.4820850490838896e-11 -1.5565298002490163e-11 -1.3327949432472881e-11
56 3.079563934269204e-11 -1.29963987376512e-11 6.565820412036116e-12
57 6.4274795805358454e-12 8.281683071003919e-12 -3.889893035279966e-12
60 -6.665140505206006e-13 -1.5958704269471792e-11 1.3089851201940763e-11
62 -7.1458250782271616e-12 5.0602509347806854e-12 5.3587755472975256e-12
63 1.023215976731567e-12 -1.3508812807078414e-12 1.7884728774101253e-11
65 -9.860681350569765e-12 -8.95269331127158e-12 -8.596221814402807e-12
69 1.0949358040184332e-11 -3.593838210582451e-13 1.5894943654389352e-11
70 8.827315675177828e-12 -7.972899324931065e-13 -1.425761124220418e-11
72 -5.204971740783296e-12 -4.430072682969817e-12 -1.5130869101153241e-12
73 -1.3185910352305196e-13 7.046072408120623e-12 7.047737480107823e-12
76 8.435621714469894e-13 -1.1570555021218038e-11 9.019035290240927e-12
78 1.0504114443000244e-12 8.10139293620568e-12 -5.110528933290869e-12
79 1.3277908624449172e-12 5.472254800834505e-12 9.311885758492445e-12
82 2.5500430458224428e-11 -3.308720802383504e-11 -1.1273586592998704e-11
86 -4.0894635458892036e-11 2.8140514147531613e-11 1.0691952520716459e-11
87 2.25733541641101e-11 1.4344129685150454e-11 2.4311812941219238e-11
90 1.510907428952666e-11 1.921250132691286e-11 8.020137379744903e-12
91 1.2471220867549702e-11 1.1559211520703426e-11 -5.5512634255116976e-11
96 2.3425213217831196e-11 -1.8498391801925124e-11 4.484823133914254e-12
97 5.43449219880671e-12 -6.01177750292245e-12 1.9425592241151056e-11
102 2.181926442799757e-11 4.500227915875731e-11 -1.2637068260746062e-11
104 1.244929105450617e-11 -7.575230354019764e-12 1.3398452117638442e-12
105 -2.845128508411688e-11 -9.437990847749549e-12 -3.8655234866074415e-13
109 4.117608036201329e-12 -9.607502798531256e-12 -6.288279152222805e-11
111 -2.7448497553344727e-11 -3.453946378432617e-11 -7.368043292756431e-11
113 7.1505545533633716e-12 -2.5346930143653468e-11 5.6905202214612575e-12
114 -3.7538269621135825e-11 -1.7035513000521445e-11 1.2191943984835848e-12
115 -6.2364307485456165e-12 -2.8269523448072722e-11 2.0489776409786146e-11
116 7.160887761310346e-12 2.1190759493717717e-11 1.239715620642072e-11
93 1.5657634585991228e-12 3.116206285168004e-11 4.1664706320354266e-11
108 -8.04305863930063e-12 1.6796165551498943e-11 3.148867025117092e-11
83 1.1837547650323432e-11 -8.788687882077662e-12 -1.0148908964213718e-11
99 -6.17889736891301e-11 -8.26681705710749e-12 -1.9399042609821896e-11
58 -9.85350050839875e-12 6.8886322985530305e-12 2.8537622473058435e-12
59 -1.3008327901186668e-12 7.714211027599584e-13 4.064463669571814e-12
61 1.049003107889697e-11 4.388609478580119e-13 -6.31700655375023e-12
64 5.5233643559717045e-12 3.4580482873863665e-12 -5.472754042899876e-12
129 3.290156103321216e-11 1.8362156179399363e-10 3.9424283784547524e-10
128 -7.389507930414185e-11 -3.3444491797740935e-11 -5.689238616687339e-11
68 -6.454008322770488e-12 1.7548314962038403e-12 2.66647411347191e-13
71 7.448964571768383e-12 2.6603874689266468e-12 -4.422334034435889e-12
74 8.848060978743217e-12 -1.070508662551922e-11 -3.3064477743101777e-12
75 1.4442642276834168e-11 -3.762701409749807e-12 5.199650770820962e-12
127 3.6609939061635186e-11 5.791881750128363e-11 -1.3715355392746707e-10
126 -6.031974827710267e-10 -3.345595124639175e-10 -2.55067086163037e-11
81 -3.754395557244031e-11 -3.873525044907229e-11 6.38009792803397e-12
125 7.781300207059856e-11 -2.6443082990571025e-12 1.0939955526927253e-10
84 2.384544328733361e-11 7.25312780060413e-11 -4.2076445578106696e-11
85 8.541102200442503e-12 2.5071401842227485e-11 -1.5760185906421448e-11
88 1.6511388882499417e-11 7.637979314805353e-12 -1.6620267347839873e-11
89 -2.553057944602739e-11 -2.0379091232841287e-11 4.9005421391416955e-11
92 1.7207570148319873e-11 -3.614945952178867e-11 -3.067184050652547e-11
124 -3.0678818917990987e-12 -9.151083019082174e-13 8.787147543761463e-12
100 1.7990591257947252e-11 -1.2714640590815685e-11 2.115333578176537e-11
95 -7.702457036563329e-13 -1.9348638386038518e-11 1.0340676355337809e-11
98 -3.888781714108996e-11 3.0774539085684057e-11 -2.418435205030422e-11
123 -5.132835940674626e-12 -5.813488177730427e-12 1.015703772653049e-12
122 2.023209089916534e-11 -1.1895963278146315e-11 -3.4437080321863684e-12
101 -8.668132355942875e-12 1.3715580579339289e-11 -1.8614279468099595e-11
103 -1.701046949783727e-11 -3.890598958875997e-11 5.492631777608749e-13
106 1.890497835479811e-11 5.401034861269579e-11 -7.384448313302965e-12
107 1.6117025886022412e-11 1.6929419227515702e-11 -2.2900365527481516e-11
121 1.5664419308644987e-11 -5.76572627089544e-13 1.3041755471961375e-12
110 1.949428162160447e-11 8.020222026588875e-12 -1.8247160536947128e-11
112 -8.39258860441366e-12 -2.9921365825495754e-11 -3.3719423354195466e-11
117 -9.603222476164784e-11 9.234500146688187e-11 6.6282052232074e-11
118 9.929569987656706e-12 -8.320967804804447e-12 -1.0717376398070358e-11
119 3.256998029986503e-11 -4.3520547230902803e-11 3.9501011944796055e-11
120 1.542856538553272e-11 4.168454566688879e-11 3.223028190847536e-12
94 -6.088127206163236e-11 -1.9063975145420818e-11 -1.6498085747335396e-11
80 -5.416501274927159e-12 -4.580839958214556e-13 1.1121593664703092e-11
66 8.831686312298875e-12 -7.581435453514531e-13 1.9559675611583635e-11
67 -1.1237521714768137e-11 -1.2379991948810235e-13 -2.289622689414504e-12
77 -1.2751667351899968e-11 -8.080424448001904e-12 4.731669979560451e-12

Bonds

1 7 129 101
2 5 125 126
3 6 125 127
4 6 125 128

Angles

1 6 127 125 128
2 5 126 125 128
3 5 126 125 127
4 7 129 101 121

Impropers

1 2 125 127 128 126
