LAMMPS data file via write_data, version 10 Feb 2021, timestep = 100

1161 atoms
15 atom types
36 bonds
7 bond types
36 angles
7 angle types
0 dihedrals
2 dihedral types
9 impropers
2 improper types

0 25.44 xlo xhi
0 25.44 ylo yhi
0 100 zlo zhi

Masses

1 12.011
2 1.008
3 15.9994
4 15.9994
5 1.008
6 55.845
7 55.845
8 15.9994
9 12.011
10 15.9994
11 15.9994
12 1.008
13 55.845
14 15.9994
15 1.008

Pair Coeffs # lj/charmm/coul/long

1 0.098 3.02906 0.098 3.02906
2 0.046 1.60362 0.046 1.60362
3 0.12 3.02906 0.12 2.49452
4 0.1921 3.14487 0.1921 3.14487
5 0.046 0.400014 0.046 0.400014
6 9.0298e-07 4.07222 0 0
7 9.0298e-07 4.07222 0 0
8 0.1554 3.16554 0 0
9 0.07 3.56359 0.07 3.56359
10 0.12 3.02906 0.12 3.02906
11 0.1554 3.1655 0 0
12 0 0 0 0
13 9.0298e-07 4.07222 0 0
14 0.1554 3.1655 0 0
15 0 0 0 0

Bond Coeffs # harmonic

1 348 1.096
2 750 1.22
3 230 1.4
4 545 0.96
5 238 1.1422
6 525 1.26
7 554.135 1

Angle Coeffs # charmm

1 55 115 0 0
2 39 119 0 0
3 47 105 0 0
4 50 123 210 2.262
5 45 116 0 0
6 100 128 70 2.2587
7 30 109.47 0 0

Dihedral Coeffs # charmm

1 3.45 2 180 1
2 2.05 2 180 1

Improper Coeffs # harmonic

1 75 0
2 67 0

Atoms # full

1 0 7 1.575 1.3615413430661425 1.2751767600952786 2.1970914031787254 0 0 0
2 0 7 1.575 7.738642878998455 7.674584469938712 7.949553874913255 0 0 0
3 0 7 1.575 5.681948917110445 1.2501092601573798 6.0491965265096646 0 0 0
4 0 7 1.575 3.4741260907808647 7.5845311734873615 4.394586068408104 0 0 0
5 0 7 1.575 1.3989777208207108 5.693230430067479 5.987657720225039 0 0 0
6 0 7 1.575 7.717776065547631 3.409413954605437 4.219008035372927 0 0 0
7 0 7 1.575 5.981928415790848 6.593443434981564 1.6015055974570378 0 0 0
8 0 7 1.575 3.460449497669379 3.3924807088610898 7.790828351510165 0 0 0
9 0 7 1.575 4.437162344433633 0.27331773826254424 1.5576511961322745 0 0 0
10 0 6 1.05 2.010427788366659 2.7578894549753463 5.106439797610597 0 0 0
11 0 6 1.05 6.317360411796704 7.019810027422523 5.044879431117397 0 0 0
12 0 6 1.05 7.028429834732053 4.9261705587155555 6.794223131087226 0 0 0
13 0 7 1.575 2.8830690881155885 4.8418363775019495 3.290939821398014 0 0 0
15 0 7 1.575 0.015995688524430354 2.039366484214937 6.961818803258958 0 0 0
16 0 7 1.575 0.7779104664249621 4.045220834447121 1.5284198066611119 0 0 0
17 0 7 1.575 4.022088945417138 1.9473275450902223 3.417779633016107 0 0 0
18 0 7 1.575 4.2771511427355975 6.2633009271879025 6.947810732912378 0 0 0
19 0 6 1.05 2.3415287114884222 0.5136939269042066 6.909200791118256 0 0 0
20 0 7 1.575 6.983455976299844 0.7340565442519434 3.066013929354925 0 0 0
22 0 7 1.575 5.538929028298475 3.4922915636922442 2.0465077806384495 0 0 0
23 0 7 1.575 2.419304793218105 6.936829009623972 1.4922579758377972 0 0 0
24 0 7 1.575 4.905844495666909 4.079726773231462 5.194923717792773 0 0 0
984 0 8 -1.05 10.806294927036822 0.04111788879071598 16.03198003827087 0 1 0
27 0 8 -1.05 4.653621214409415 2.3277917435079116 5.071236248493172 0 0 0
28 0 8 -1.05 4.585537168091607 6.592843135860385 5.289934318807359 0 0 0
30 0 8 -1.05 0.12801524616641755 4.426300942566996 3.101234611855424 0 0 0
31 0 8 -1.05 6.775244773017357 6.577562449180448 3.2490114391815266 0 0 0
32 0 8 -1.05 2.431101019924622 2.382572494525402 6.836683016943003 0 0 0
34 0 8 -1.05 0.7153444720708629 6.493567767233034 1.6039173719694417 0 0 0
35 0 8 -1.05 4.558806444451368 4.238054409065036 3.406522475930202 0 0 0
36 0 8 -1.05 4.441710055787651 4.467988276966001 6.811587804570135 0 0 0
37 0 8 -1.05 6.589827986009382 8.856580936406006 4.8436613918212705 0 0 0
38 0 8 -1.05 2.3362812234205035 0.12521901648528327 5.176719932163394 0 0 0
39 0 8 -1.05 2.572312797414719 6.507757741837589 6.9613408783276185 0 0 0
40 0 8 -1.05 6.718096764828648 2.486884254751917 3.0461145220160004 0 0 0
42 0 8 -1.05 0.24822018900756468 0.28698819495967137 6.920445909104985 0 0 0
43 0 8 -1.05 2.362957607536599 4.584617657236177 4.965000286651698 0 0 0
44 0 8 -1.05 6.626615505599864 4.3255546807990255 5.1681331189600614 0 0 0
46 0 8 -1.05 4.549871212600817 2.0799615568320498 1.6987140335782034 0 0 0
47 0 8 -1.05 6.7378490409939475 2.174897900049917 6.975370967694993 0 0 0
48 0 8 -1.05 2.7195488880061656 6.526375039975985 3.2652817135547596 0 0 0
49 0 8 -1.05 4.359973063532974 0.2628624846038149 3.44270517291213 0 0 0
50 0 8 -1.05 4.57766719725506 8.89933441477042 7.0775468504138574 0 0 0
51 0 8 -1.05 0.24756592799625926 2.4390300264339086 5.283147889954902 0 0 0
53 0 8 -1.05 2.4040158684666966 4.471505177522166 1.6694363676474753 0 0 0
55 0 8 -1.05 2.3267958461624993 2.3006203818573865 3.3280445225603037 0 0 0
56 0 8 -1.05 6.832301326019839 6.738546490441879 6.79502701597179 0 0 0
113 0 8 -1.05 6.155128990264644 4.894474633499261 1.2746844785127165 0 0 0
114 0 8 -1.05 4.239741588364914 6.933654770269152 1.2147609029216617 0 0 0
116 0 8 -1.05 2.5221320930669933 8.71921844752947 1.4526296194745374 0 0 0
388 0 7 1.575 1.3615409697508039 9.755177195378018 2.197092127341807 0 0 0
390 0 7 1.575 5.681948868029176 9.73011015586745 6.0491974123632675 0 0 0
393 0 7 1.575 7.717775826006369 11.889411660288031 4.219007594808011 0 0 0
395 0 7 1.575 3.4604495287979975 11.872478175755866 7.790828755227207 0 0 0
396 0 7 1.575 4.437162637188193 8.753320485552099 1.5576510367928211 0 0 0
397 0 6 1.05 2.0104280923101747 11.23788595637195 5.106439697351831 0 0 0
402 0 7 1.575 0.01599551234228464 10.519363444956998 6.96181938084724 0 0 0
403 0 7 1.575 0.77791048460406 12.52521962232216 1.528419966602745 0 0 0
404 0 7 1.575 4.022088274946819 10.427325420665461 3.4177806577833114 0 0 0
406 0 6 1.05 2.341528671241592 8.99369834550442 6.909200755188501 0 0 0
407 0 7 1.575 6.983456603659837 9.21405854672937 3.0660136126775637 0 0 0
408 0 6 1.05 0.5511973118369707 8.443167629656559 4.967143240929232 0 0 0
409 0 7 1.575 5.53892971334933 11.97228968558928 2.0465066914329157 0 0 0
411 0 7 1.575 4.9058453221611575 12.559724910280098 5.194923826295303 0 0 0
413 0 8 -1.05 6.222308789815034 8.473668712269763 1.6413529353419163 0 0 0
414 0 8 -1.05 4.653620843131951 10.807790851236579 5.071235002967101 0 0 0
419 0 8 -1.05 2.4311015076192013 10.862570834122621 6.836683174877575 0 0 0
422 0 8 -1.05 4.558807319751602 12.718055652881803 3.4065230159411457 0 0 0
425 0 8 -1.05 2.336281452216724 8.605219588214824 5.176719893899201 0 0 0
427 0 8 -1.05 6.718096793910235 10.966884167880622 3.0461138989748955 0 0 0
429 0 8 -1.05 0.24821921448329332 8.76698858708427 6.9204456127704 0 0 0
433 0 8 -1.05 4.549870096872386 10.559961493016186 1.6987142636556238 0 0 0
434 0 8 -1.05 6.73784872769374 10.654898966416365 6.975371588656979 0 0 0
436 0 8 -1.05 4.359972595354925 8.74286100764726 3.44270493984159 0 0 0
438 0 8 -1.05 0.2475654181791131 10.91902940488869 5.28314793822259 0 0 0
442 0 8 -1.05 2.3267955036106795 10.780620855194227 3.3280453377634047 0 0 0
811 0 8 -1.05 6.589828056655534 0.3765791911151729 4.843661238777589 0 1 0
824 0 8 -1.05 4.577666235827402 0.4193336723454529 7.077545905469878 0 1 0
890 0 8 -1.05 2.522132215677854 0.23921893004262895 1.452628921641505 0 1 0
143 0 7 1.575 8.454673019912605 6.226883971894691 3.183902534946905 0 0 0
287 0 8 -1.05 0.379452642760295 4.670179058942225 7.003392284933212 1 0 0
299 0 8 -1.05 0.21025101297378884 8.856744652686018 3.1791348369758046 1 0 0
310 0 8 -1.05 0.4537399579372287 6.547300528837246 4.84912725976162 1 0 0
373 0 8 -1.05 0.5389900296638869 2.410004220011005 1.247974471747036 1 0 0
760 0 8 -1.05 0.5389885133378195 10.8900042861891 1.2479748785502363 1 0 0
1073 0 8 -1.05 0.21025137099198082 0.3767437310977063 3.17913440020597 1 1 0
29 0 8 -1.05 8.859453908467172 4.670178278892987 7.00339326510508 0 0 0
41 0 8 -1.05 8.690251124195134 8.85674319578304 3.179135318021496 0 0 0
52 0 8 -1.05 8.933739372236756 6.547300459092186 4.849127816125857 0 0 0
115 0 8 -1.05 9.01898905599121 2.4100036985259328 1.2479748491113245 0 0 0
502 0 8 -1.05 9.018987549213039 10.89000376911839 1.2479752579721253 0 0 0
815 0 8 -1.05 8.690251490576626 0.37674228438413315 3.1791348908957504 0 1 0
130 0 7 1.575 9.841540860101006 1.2751770945194671 2.1970918981127316 0 0 0
131 0 7 1.575 16.218639773227416 7.674584727665779 7.949553496801248 0 0 0
132 0 7 1.575 14.161952057992282 1.2501086862503399 6.049196062270093 0 0 0
133 0 7 1.575 11.954124880395229 7.584530760167057 4.394585006560879 0 0 0
134 0 7 1.575 9.878975687006651 5.693230836599896 5.987658401686376 0 0 0
135 0 7 1.575 16.1977752782192 3.409413563101441 4.21900901350034 0 0 0
136 0 7 1.575 14.46192908570533 6.593443717847827 1.6015054556210442 0 0 0
137 0 7 1.575 11.940447634931779 3.3924806169232777 7.7908282079772455 0 0 0
138 0 7 1.575 12.917162466413426 0.27331739905501606 1.557650474295154 0 0 0
139 0 6 1.05 10.490424402594346 2.7578894796589593 5.106439706955145 0 0 0
140 0 6 1.05 14.79736223903399 7.019809604078791 5.044879719657895 0 0 0
141 0 6 1.05 15.508432441215756 4.926170317811824 6.794222719141237 0 0 0
142 0 7 1.575 11.363066628220011 4.841835094091801 3.290939791079222 0 0 0
144 0 7 1.575 8.495998143717095 2.039366977172945 6.9618190096210535 0 0 0
145 0 7 1.575 9.257910971871992 4.0452201157145 1.528419897822032 0 0 0
146 0 7 1.575 12.50208909341558 1.9473278270643188 3.4177793315300025 0 0 0
147 0 7 1.575 12.75715414838816 6.26330067454437 6.947811431347858 0 0 0
148 0 6 1.05 10.821523099774865 0.5136941944816418 6.909201496588342 0 0 0
149 0 7 1.575 15.463457045624725 0.7340567589373971 3.0660144953692767 0 0 0
151 0 7 1.575 14.018931355648588 3.492290876503887 2.046507418404073 0 0 0
152 0 7 1.575 10.89930371469935 6.936829727623275 1.4922576859856584 0 0 0
153 0 7 1.575 13.38584609553839 4.079726460252343 5.194923633422046 0 0 0
855 0 8 -1.05 2.326294563390523 0.041117548710189515 16.031980259176265 0 1 0
156 0 8 -1.05 13.133623870527913 2.327791891043038 5.071235972723142 0 0 0
157 0 8 -1.05 13.065537648123245 6.592843552505542 5.289933575362287 0 0 0
159 0 8 -1.05 8.608016246774582 4.426301507014987 3.1012350250891076 0 0 0
160 0 8 -1.05 15.255243396403689 6.577562086816907 3.249011102489888 0 0 0
161 0 8 -1.05 10.911101213402128 2.382571797342337 6.836682430272202 0 0 0
163 0 8 -1.05 9.195344045438343 6.493568657594823 1.6039167939914132 0 0 0
164 0 8 -1.05 13.038805388032564 4.2380537482296505 3.4065232808806574 0 0 0
165 0 8 -1.05 12.921710166539354 4.467987763488591 6.811587810711149 0 0 0
166 0 8 -1.05 15.069829703620472 8.856580255776166 4.84366087824725 0 0 0
167 0 8 -1.05 10.816282434662629 0.12521798193390987 5.176719638387578 0 0 0
168 0 8 -1.05 11.052313314726215 6.507756484043657 6.961341496901773 0 0 0
169 0 8 -1.05 15.198096496328663 2.4868842842806846 3.0461144787332954 0 0 0
171 0 8 -1.05 8.728221994312207 0.28698807921863195 6.920445047866271 0 0 0
172 0 8 -1.05 10.842957133006854 4.584618707991745 4.965001632521678 0 0 0
173 0 8 -1.05 15.106616297243482 4.3255557372007285 5.168134011824143 0 0 0
175 0 8 -1.05 13.029871375229527 2.079962394265523 1.698713683592731 0 0 0
176 0 8 -1.05 15.217847457497907 2.1748981913827365 6.975372118072506 0 0 0
177 0 8 -1.05 11.19954796639934 6.526374450880415 3.2652814672060404 0 0 0
178 0 8 -1.05 12.839971952783307 0.26286275147731697 3.442704772293789 0 0 0
179 0 8 -1.05 13.057668938053517 8.899334289682729 7.077546868801249 0 0 0
180 0 8 -1.05 8.72756558905011 2.4390304317394476 5.283147762244141 0 0 0
182 0 8 -1.05 10.884016452618441 4.471504604476897 1.6694354394862 0 0 0
184 0 8 -1.05 10.806796142659499 2.3006215255769114 3.328045176644846 0 0 0
185 0 8 -1.05 15.312298926176918 6.738546550323928 6.795027657151929 0 0 0
242 0 8 -1.05 14.63512853113668 4.894474808457237 1.2746837485443672 0 0 0
243 0 8 -1.05 12.719742035636655 6.9336555473516865 1.2147605845956433 0 0 0
245 0 8 -1.05 11.002132776830386 8.719219038056838 1.452630286189938 0 0 0
517 0 7 1.575 9.841540491107741 9.755177520226777 2.1970926223308123 0 0 0
519 0 7 1.575 14.161952006775431 9.730109589271672 6.049196942561937 0 0 0
522 0 7 1.575 16.197775031396105 11.8894112811648 4.219008568380989 0 0 0
524 0 7 1.575 11.94044766691772 11.872478078718363 7.79082861394393 0 0 0
525 0 7 1.575 12.917162758881842 8.753320151713707 1.5576503191663318 0 0 0
526 0 6 1.05 10.490424710880976 11.23788597227795 5.106439607012101 0 0 0
531 0 7 1.575 8.4959979673917 10.519363935067247 6.961819585204503 0 0 0
532 0 7 1.575 9.257910987719667 12.525218907540655 1.5284200555126668 0 0 0
533 0 7 1.575 12.502088420184265 10.427325703244664 3.4177803494697847 0 0 0
535 0 6 1.05 10.821523048744194 8.993698614990636 6.9092014602828025 0 0 0
536 0 7 1.575 15.463457671752026 9.214058757532696 3.0660141710770934 0 0 0
537 0 6 1.05 9.031199903872283 8.443167792113904 4.967144051104139 0 0 0
538 0 7 1.575 14.018932036988462 11.972289000222325 2.046506340207683 0 0 0
540 0 7 1.575 13.385846919735034 12.559724599969922 5.194923734106234 0 0 0
542 0 8 -1.05 14.70230922896821 8.47366963131049 1.6413534975743782 0 0 0
543 0 8 -1.05 13.133623499210545 10.807790995721488 5.0712347145037215 0 0 0
548 0 8 -1.05 10.91110170960343 10.862570132214548 6.836682576069636 0 0 0
551 0 8 -1.05 13.03880625782182 12.718055000935689 3.4065238229379253 0 0 0
554 0 8 -1.05 10.816282659964715 8.605218552393156 5.176719587517079 0 0 0
556 0 8 -1.05 15.198096516614648 10.966884187621392 3.046113862045288 0 0 0
558 0 8 -1.05 8.728221029745486 8.766988462385367 6.920444760024922 0 0 0
562 0 8 -1.05 13.029870257103918 10.559962331469169 1.6987139165677303 0 0 0
563 0 8 -1.05 15.217847138096106 10.654899264634338 6.975372729747251 0 0 0
565 0 8 -1.05 12.83997149112286 8.742861277225897 3.442704539794666 0 0 0
567 0 8 -1.05 8.727565082934868 10.919029806392182 5.283147805823321 0 0 0
571 0 8 -1.05 10.806795797117394 10.7806219892479 3.3280459877397623 0 0 0
940 0 8 -1.05 15.069829772663555 0.3765785162230198 4.843660724470725 0 1 0
953 0 8 -1.05 13.057667971560484 0.41933353931882145 7.077545910987348 0 1 0
1019 0 8 -1.05 11.002132896176752 0.23921952131257293 1.4526295816524755 0 1 0
272 0 7 1.575 16.934671096611783 6.226883276675895 3.1839027115684693 0 0 0
14 0 7 1.575 25.414671922867626 6.226883160499866 3.183902621540384 -1 0 0
158 0 8 -1.05 17.33945338074532 4.670178904659185 7.003392882967477 0 0 0
170 0 8 -1.05 17.170252086906267 8.856744059608896 3.179135671681594 0 0 0
181 0 8 -1.05 17.413738490942837 6.54730149367682 4.8491274592463185 0 0 0
244 0 8 -1.05 17.498990554779994 2.410004280646695 1.2479734791434145 0 0 0
631 0 8 -1.05 17.498989040294905 10.890004344100712 1.247973886245023 0 0 0
944 0 8 -1.05 17.17025244623866 0.37674313741793153 3.179135247512141 0 1 0
259 0 7 1.575 18.32154016603752 1.2751769225529839 2.1970916495776374 0 0 0
260 0 7 1.575 24.698638342344374 7.674584509713914 7.949553557751266 0 0 0
261 0 7 1.575 22.64194963752738 1.2501090436682083 6.049196421928444 0 0 0
262 0 7 1.575 20.434127285217667 7.584531153742763 4.394585187393288 0 0 0
263 0 7 1.575 18.358974310734784 5.693231020313889 5.987658150137643 0 0 0
264 0 7 1.575 24.6777736382916 3.409413061857246 4.219007705158347 0 0 0
265 0 7 1.575 22.94192809961618 6.593443142185577 1.601506301247563 0 0 0
266 0 7 1.575 20.420452026793473 3.3924807994449644 7.79082821695851 0 0 0
267 0 7 1.575 21.39716407318177 0.2733178744617389 1.5576505507320535 0 0 0
268 0 6 1.05 18.97042511861678 2.757889646386167 5.1064397976478295 0 0 0
269 0 6 1.05 23.27735891013816 7.0198099722702905 5.044879342793765 0 0 0
270 0 6 1.05 23.988427732379947 4.926170082939954 6.794223574004763 0 0 0
271 0 7 1.575 19.843068676447032 4.84183601946199 3.2909397780775915 0 0 0
273 0 7 1.575 16.975992969753108 2.039366583944701 6.961818513762303 0 0 0
274 0 7 1.575 17.737909322873545 4.045220849923309 1.5284200524965352 0 0 0
275 0 7 1.575 20.982091802035878 1.947328558134645 3.4177793982823 0 0 0
276 0 7 1.575 21.237156097118497 6.263301082982404 6.947811449376965 0 0 0
277 0 6 1.05 19.30152521705108 0.5136943186339515 6.909201354773708 0 0 0
278 0 7 1.575 23.943454776904087 0.7340561823360915 3.066014432225798 0 0 0
280 0 7 1.575 22.498930404164057 3.4922913878694746 2.0465076254299497 0 0 0
281 0 7 1.575 19.379304218628043 6.936829862938201 1.4922573931342868 0 0 0
282 0 7 1.575 21.86584774894741 4.079726003113086 5.19492401021004 0 0 0
1113 0 8 -1.05 19.286294158814826 0.04111816590351899 16.03198064035746 0 1 0
285 0 8 -1.05 21.613623540784246 2.3277922430405167 5.0712360512322485 0 0 0
286 0 8 -1.05 21.545538006487995 6.592843409581317 5.289933528480155 0 0 0
288 0 8 -1.05 17.088015894905155 4.42630098846311 3.101235143317725 0 0 0
289 0 8 -1.05 23.735243976875484 6.577563215745243 3.249011539332197 0 0 0
290 0 8 -1.05 19.3911034332027 2.38257295016967 6.836682202464141 0 0 0
292 0 8 -1.05 17.675343752380467 6.493567399050107 1.603917588934012 0 0 0
293 0 8 -1.05 21.518805540264065 4.2380532859149325 3.4065230626938003 0 0 0
294 0 8 -1.05 21.401711795424443 4.4679887498992805 6.811587384112183 0 0 0
295 0 8 -1.05 23.549829843228824 8.856581421708137 4.843662221925031 0 0 0
296 0 8 -1.05 19.296281166220307 0.12521805400746555 5.176719046942799 0 0 0
297 0 8 -1.05 19.532313896072903 6.507756075763913 6.961340119962328 0 0 0
298 0 8 -1.05 23.67809569467299 2.486884022776382 3.0461141521647477 0 0 0
300 0 8 -1.05 17.208220864018102 0.2869879609884961 6.920446022341519 0 0 0
301 0 8 -1.05 19.322954632711387 4.584618650279172 4.965000166034999 0 0 0
302 0 8 -1.05 23.586617819018972 4.3255551629844335 5.168133668170366 0 0 0
304 0 8 -1.05 21.509871326997356 2.079961847795915 1.6987123625325864 0 0 0
305 0 8 -1.05 23.697847738341768 2.174898217400047 6.975372530604804 0 0 0
306 0 8 -1.05 19.679549785582285 6.526375022057982 3.265281631283289 0 0 0
307 0 8 -1.05 21.31997446667675 0.26286297385251967 3.442704798723862 0 0 0
308 0 8 -1.05 21.537667103272973 8.899334088393772 7.077546498583107 0 0 0
309 0 8 -1.05 17.20756519753696 2.439028919694314 5.283148773616638 0 0 0
311 0 8 -1.05 19.36401562608636 4.471504326294312 1.669436849660114 0 0 0
313 0 8 -1.05 19.286797105164112 2.3006198160132643 3.3280452232711566 0 0 0
314 0 8 -1.05 23.792299685217387 6.7385464676551425 6.7950263710615175 0 0 0
371 0 8 -1.05 23.11513012116377 4.894474808953617 1.2746849030443699 0 0 0
372 0 8 -1.05 21.199741174611525 6.933654718200368 1.2147611923570687 0 0 0
374 0 8 -1.05 19.48213114057808 8.71921823653595 1.452629639984657 0 0 0
646 0 7 1.575 18.321539799643528 9.755177351743951 2.1970923706902314 0 0 0
648 0 7 1.575 22.64194958467624 9.730109940228512 6.049197309210087 0 0 0
651 0 7 1.575 24.677773394909106 11.889410773594943 4.219007265479604 0 0 0
653 0 7 1.575 20.42045205587353 11.87247827034548 7.790828617908943 0 0 0
654 0 7 1.575 21.39716435971727 8.753320623211138 1.557650394288062 0 0 0
655 0 6 1.05 18.970425421683625 11.237886138258592 5.106439697157269 0 0 0
660 0 7 1.575 16.97599278910555 10.519363548749922 6.96181909271915 0 0 0
661 0 7 1.575 17.73790933435636 12.525219634922953 1.5284202124250177 0 0 0
662 0 7 1.575 20.982091130117393 10.427326429073146 3.4177804207850326 0 0 0
664 0 6 1.05 19.30152516699042 8.993698736011147 6.90920132083937 0 0 0
665 0 7 1.575 23.94345540151918 9.21405817829152 3.066014114871327 0 0 0
666 0 6 1.05 17.511196829074464 8.443168157613103 4.967144007437929 0 0 0
667 0 7 1.575 22.498931090002795 11.97228951285899 2.0465065376726583 0 0 0
669 0 7 1.575 21.865848569995464 12.559724147173451 5.194924105187148 0 0 0
671 0 8 -1.05 23.182309181028305 8.473668777412561 1.6413521589451316 0 0 0
672 0 8 -1.05 21.613623170322928 10.807791341580684 5.071234801848764 0 0 0
677 0 8 -1.05 19.391103933796472 10.86257128912722 6.836682355228287 0 0 0
680 0 8 -1.05 21.518806417047255 12.718054535919658 3.4065236017180567 0 0 0
683 0 8 -1.05 19.296281399468757 8.60521862384454 5.1767190040445845 0 0 0
685 0 8 -1.05 23.67809572165007 10.966883919330183 3.046113540888058 0 0 0
687 0 8 -1.05 17.208219894653165 8.766988359984007 6.920445723163485 0 0 0
691 0 8 -1.05 21.509870215435065 10.559961777696426 1.6987126012440001 0 0 0
692 0 8 -1.05 23.697847412602545 10.654899296886327 6.975373149834684 0 0 0
694 0 8 -1.05 21.319973998230807 8.74286148962153 3.4427045528865876 0 0 0
696 0 8 -1.05 17.207564686611025 10.919028305289322 5.283148822430093 0 0 0
700 0 8 -1.05 19.286796766765086 10.780620286166023 3.328046039030715 0 0 0
1069 0 8 -1.05 23.549829918273534 0.3765796860138278 4.843662074378579 0 1 0
1082 0 8 -1.05 21.537666131789557 0.4193333555907751 7.077545535980735 0 1 0
1148 0 8 -1.05 19.482131258172952 0.23921871865869943 1.4526289420831306 0 1 0
25 0 8 -1.05 2.4525264356723224 8.964011025585995 8.73011076504362 0 0 0
45 0 8 -1.05 4.579854758443195 6.447611792752992 8.664833620234143 0 0 0
54 0 8 -1.05 6.75928387309101 4.680180945379818 8.601926428839505 0 0 0
57 0 7 1.575 1.3467085401186185 1.383717826752103 9.753506714979466 0 0 0
60 0 7 1.575 3.4919312371560127 7.68613169004759 11.553259926791183 0 0 0
62 0 7 1.575 7.718667505072527 3.4769683927786357 11.621904399147725 0 0 0
63 0 7 1.575 5.7079686892754555 5.576263482289725 9.671948132116801 0 0 0
65 0 7 1.575 4.177244719042668 0.5965524531832652 8.758618138367513 0 0 0
69 0 6 1.05 2.0711686444161033 4.128734372487239 10.54761396871105 0 0 0
70 0 7 1.575 0.6139144888985112 6.940043702070387 10.584401287108031 0 0 0
72 0 7 1.575 0.03582569062706378 4.67228278522838 8.766357414825428 0 0 0
73 0 7 1.575 4.937030377748687 2.740281520521441 10.587631999910135 0 0 0
78 0 6 1.05 6.9091431865461965 2.0389203788961106 8.839695010760183 0 0 0
79 0 6 1.05 2.759611826564481 6.237975511020698 8.81793207093496 0 0 0
82 0 8 -1.05 6.768063765133391 0.25477024327620856 8.93018161768245 0 0 0
86 0 8 -1.05 0.26808122715433985 4.379020879968674 10.503382574285952 0 0 0
87 0 8 -1.05 6.673846227820785 6.542536280940827 10.696715546931873 0 0 0
90 0 8 -1.05 0.2117599871494751 6.5382897024784405 8.912297206748526 0 0 0
91 0 8 -1.05 4.754261661318337 4.474779532772037 10.773261144065875 0 0 0
96 0 8 -1.05 6.644668068930014 2.59309332652816 10.54088923162425 0 0 0
102 0 8 -1.05 4.436472892011059 2.400765287976848 8.992504532090308 0 0 0
104 0 8 -1.05 2.424024805224917 6.717498892724704 10.53134345859896 0 0 0
105 0 8 -1.05 4.449244581195266 0.09156958763781133 10.440951860337556 0 0 0
109 0 8 -1.05 2.5092014282182067 4.425517680157245 8.82093165118911 0 0 0
111 0 8 -1.05 2.3225500354595163 2.357757262265918 10.818099077648265 0 0 0
93 0 8 -1.05 6.646621056589939 8.884865666268396 12.321037188945072 0 0 0
83 0 8 -1.05 4.577362072490401 2.204548561600464 12.202375973415169 0 0 0
99 0 8 -1.05 2.5554228702254 4.586191900882117 12.34101566846793 0 0 0
80 0 7 1.575 4.223202570039607 4.887158154966756 12.400781609999687 0 0 0
66 0 7 1.575 2.8392666797441426 1.9877646984608996 12.48570327858492 0 0 0
444 0 7 1.575 1.3467086380250455 9.863718214758139 9.7535062087519 0 0 0
449 0 7 1.575 7.718667847716604 11.956965252406908 11.621904111219596 0 0 0
452 0 7 1.575 4.177244286810025 9.0765564110726 8.758617230547868 0 0 0
456 0 6 1.05 2.0711683471822173 12.608732824930184 10.547613967849415 0 0 0
460 0 7 1.575 4.937029356919117 11.220277552115792 10.58763217099589 0 0 0
463 0 6 1.05 6.2752074964946765 8.302040579593559 10.707994479329 0 0 0
465 0 6 1.05 6.909143605754492 10.518917361352392 8.839694836540817 0 0 0
469 0 8 -1.05 6.76806370702313 8.734771570465396 8.930182116628838 0 0 0
483 0 8 -1.05 6.6446674323574255 11.073092251650344 10.540888365041253 0 0 0
489 0 8 -1.05 4.436471993671853 10.880764186917599 8.992504260164662 0 0 0
492 0 8 -1.05 4.4492449163804055 8.571570910046018 10.440951447934971 0 0 0
498 0 8 -1.05 2.3225509112603033 10.83775659701171 10.818099128426185 0 0 0
470 0 8 -1.05 4.577362609501522 10.684547328358704 12.20237617396278 0 0 0
453 0 7 1.575 2.8392668694028607 10.467761838968636 12.485702733764995 0 0 0
799 0 8 -1.05 2.4525266449093195 0.4840103668415112 8.73011111024729 0 1 0
867 0 8 -1.05 6.646620868748078 0.4048671151143536 12.321036795141133 0 1 0
206 0 6 1.05 8.385370895248071 0.5215962352047634 12.436403300163498 0 0 0
593 0 6 1.05 8.38537045929822 9.001600352759276 12.436402629391496 0 0 0
291 0 8 -1.05 0.28553542086392547 2.351115141298632 8.711384577420665 1 0 0
355 0 8 -1.05 0.43690421386526085 8.64573713536625 10.654953971946979 1 0 0
366 0 8 -1.05 0.41263169935911354 6.562474636404677 12.298714071502793 1 0 0
678 0 8 -1.05 0.2855361399676363 10.831116305967305 8.711384255354567 1 0 0
1129 0 8 -1.05 0.43690498242430503 0.16573748622400114 10.654953369125868 1 1 0
58 0 7 1.575 7.735336606179315 7.65002006642595 15.32808917464828 0 0 0
59 0 7 1.575 5.622986016610432 1.3564422622601706 13.30734898862212 0 0 0
61 0 7 1.575 1.4441587547529058 5.5859010918588075 13.321350899492368 0 0 0
64 0 7 1.575 3.326503979857688 3.367829395957835 15.215313413212451 0 0 0
68 0 7 1.575 6.245259035203177 4.147169415321974 14.32103078657308 0 0 0
71 0 7 1.575 0.6652828303604987 2.72269189586665 14.146250503180589 0 0 0
74 0 13 1.575 4.963903730437445 7.123661827850281 14.383522265875792 0 0 0
81 0 8 -1.05 2.326294153247221 8.521115809292324 16.03198130993284 0 0 0
84 0 8 -1.05 4.6734846190025605 6.609101449715656 12.458203208690232 0 0 0
88 0 8 -1.05 2.440995564328636 2.4068405679793003 14.08807033420955 0 0 0
92 0 8 -1.05 4.49084915903168 4.307083992871489 14.227530059450107 0 0 0
124 0 7 1.575 0.22709331928274007 4.750611697578287 16.30651539065138 0 0 0
100 0 8 -1.05 6.650799416306997 4.446310526854426 12.669467106918711 0 0 0
95 0 8 -1.05 2.651479738940727 6.482753544402524 14.132674288820954 0 0 0
98 0 8 -1.05 0.40675160878391864 0.1112165727132976 14.175311458798094 0 0 0
123 0 7 1.575 7.089165547119297 1.9835053062216599 15.97650922945685 0 0 0
122 0 13 1.575 2.3269601575258068 6.218706184327706 16.2725591655693 0 0 0
101 1 11 -1.05 4.640084104363404 7.148419035688819 16.173631659723217 0 0 0
103 0 8 -1.05 6.509375352269604 2.434044735921869 14.37985818973378 0 0 0
106 0 8 -1.05 4.646757087449651 8.745975769878735 14.145980300512086 0 0 0
107 0 8 -1.05 0.18225215764722066 2.338149125309647 12.541542261872802 0 0 0
110 0 8 -1.05 6.998483327719341 4.4006956483779325 15.951201942251497 0 0 0
112 0 8 -1.05 6.686581581118312 6.802357781220732 14.236058726007451 0 0 0
117 0 8 -1.05 2.336445646482563 4.442260027802281 15.965270545650062 0 0 0
118 0 8 -1.05 4.102330720914635 2.342263894175488 16.341768294040413 0 0 0
119 0 8 -1.05 0.4531977635109841 6.451899148182831 15.869862228857416 0 0 0
120 0 8 -1.05 6.972420030652484 0.3339038134604784 16.29917185515306 0 0 0
94 0 8 -1.05 2.57575793824443 0.24838185869507265 12.620982092494854 0 0 0
67 0 6 1.05 6.986254023202364 6.341100361997054 12.492910625332053 0 0 0
446 0 7 1.575 5.622986548383729 9.83644246465465 13.30734887882955 0 0 0
451 0 7 1.575 3.32650296225574 11.847828017741133 15.215313453316089 0 0 0
455 0 7 1.575 6.245258640756852 12.627168450680783 14.32103151759909 0 0 0
458 0 7 1.575 0.665282639817563 11.202689998317487 14.146250663339488 0 0 0
462 0 7 1.575 2.0989482148918466 8.26343524013701 14.320632361346318 0 0 0
475 0 8 -1.05 2.440995102254323 10.88683842956666 14.08807116455912 0 0 0
485 0 8 -1.05 0.40675207849691886 8.591218372381435 14.175313066164238 0 0 0
510 0 7 1.575 7.089165642204495 10.463502809419337 15.976508448807513 0 0 0
490 0 8 -1.05 6.509375173130884 10.914044613907324 14.379859702167632 0 0 0
494 0 8 -1.05 0.1822506265310723 10.818147281020837 12.54154252288616 0 0 0
505 0 8 -1.05 4.102331825496164 10.82226552943883 16.341769181260847 0 0 0
507 0 8 -1.05 6.972420015943287 8.813901711371027 16.29917345049994 0 0 0
481 0 8 -1.05 2.5757577237398355 8.728380940107195 12.620982055498812 0 0 0
766 0 13 1.575 20.310027378503754 9.528687301372296 16.91938802696538 0 0 0
880 0 8 -1.05 4.6467590205528495 0.2659759189837052 14.145980646217007 0 1 0
343 0 8 -1.05 0.47626631148400966 4.437837952117543 14.083866710429852 1 0 0
347 0 8 -1.05 0.30383722495356263 2.419022198446899 15.866371609324823 1 0 0
734 0 8 -1.05 0.3038361274795333 10.899024693960575 15.86637239335291 1 0 0
33 0 8 -1.05 8.765535562153326 2.351114785333687 8.711384270737241 0 0 0
97 0 8 -1.05 8.916903948960146 8.64573682863401 10.654954213367777 0 0 0
108 0 8 -1.05 8.892630910884813 6.562474691674084 12.298713362682975 0 0 0
420 0 8 -1.05 8.765536278934983 10.831115935579849 8.711383948409454 0 0 0
871 0 8 -1.05 8.916904717985263 0.16573718175456117 10.654953608818174 0 1 0
154 0 8 -1.05 10.932527240098539 8.964010839209413 8.730110306693428 0 0 0
174 0 8 -1.05 13.059854032895922 6.44761140457468 8.66483409478771 0 0 0
183 0 8 -1.05 15.239281753581361 4.68018097379371 8.601925475533855 0 0 0
186 0 7 1.575 9.826706949471053 1.383717529080656 9.753506234256301 0 0 0
189 0 7 1.575 11.971929123189314 7.686132094824675 11.553260449362485 0 0 0
191 0 7 1.575 16.198665666327496 3.4769686699841174 11.621903745099916 0 0 0
192 0 7 1.575 14.18797230172454 5.576263773152768 9.67194781089141 0 0 0
194 0 7 1.575 12.657247016534 0.5965528221033204 8.758617855272522 0 0 0
198 0 6 1.05 10.55116441249282 4.12873413592863 10.547614276589131 0 0 0
199 0 7 1.575 9.093916892673802 6.940043564597868 10.584401207972352 0 0 0
201 0 7 1.575 8.515828031373454 4.6722831872689365 8.766357008347953 0 0 0
202 0 7 1.575 13.417032713150174 2.7402821933589268 10.587632439798497 0 0 0
207 0 6 1.05 15.389145966282962 2.0389205508928336 8.839695504195136 0 0 0
208 0 6 1.05 11.239606842347424 6.237975762197417 8.817931019274855 0 0 0
211 0 8 -1.05 15.248061364453688 0.2547706149453624 8.930181357332387 0 0 0
215 0 8 -1.05 8.74808140535707 4.379020173967031 10.503381706612126 0 0 0
216 0 8 -1.05 15.153849730966186 6.542536364177436 10.69671537985297 0 0 0
219 0 8 -1.05 8.691761137458965 6.538288521154632 8.912298010956677 0 0 0
220 0 8 -1.05 13.234263705053142 4.474779484949008 10.773261355157663 0 0 0
225 0 8 -1.05 15.124668803473135 2.5930920252012544 10.540888411367353 0 0 0
231 0 8 -1.05 12.91647376557004 2.400765059406265 8.992505025178723 0 0 0
233 0 8 -1.05 10.90402504473531 6.717499777360397 10.531344595396991 0 0 0