LAMMPS data file via write_data, version 10 Feb 2021, timestep = 1120

129 atoms
15 atom types
4 bonds
7 bond types
4 angles
7 angle types
0 dihedrals
2 dihedral types
1 impropers
2 improper types

0 8.48 xlo xhi
0 8.48 ylo yhi
0 100 zlo zhi

Masses

1 12.011
2 1.008
3 15.9994
4 15.9994
5 1.008
6 55.845
7 55.845
8 15.9994
9 12.011
10 15.9994
11 15.9994
12 1.008
13 55.845
14 15.9994
15 1.008

Pair Coeffs # lj/charmm/coul/long

1 0.098 3.02906 0.098 3.02906
2 0.046 1.60362 0.046 1.60362
3 0.12 3.02906 0.12 2.49452
4 0.1921 3.14487 0.1921 3.14487
5 0.046 0.400014 0.046 0.400014
6 9.0298e-07 4.07222 0 0
7 9.0298e-07 4.07222 0 0
8 0.1554 3.16554 0 0
9 0.07 3.56359 0.07 3.56359
10 0.12 3.02906 0.12 3.02906
11 0.1554 3.1655 0 0
12 0 0 0 0
13 9.0298e-07 4.07222 0 0
14 0.1554 3.1655 0 0
15 0 0 0 0

Bond Coeffs # harmonic

1 348 1.096
2 750 1.22
3 230 1.4
4 545 0.96
5 238 1.1422
6 525 1.26
7 554.135 1

Angle Coeffs # charmm

1 55 115 0 0
2 39 119 0 0
3 47 105 0 0
4 50 123 210 2.262
5 45 116 0 0
6 100 128 70 2.2587
7 30 109.47 0 0

Dihedral Coeffs # charmm

1 3.45 2 180 1
2 2.05 2 180 1

Improper Coeffs # harmonic

1 75 0
2 67 0

Atoms # full

1 0 7 1.575 1.3345038993165845 1.3439097827635833 2.0969522000263305 0 0 0
2 0 7 1.575 7.773307987923185 7.755615824700796 7.87757633564442 0 0 0
3 0 7 1.575 5.63365892476844 1.1604802667572383 6.051671985825926 0 0 0
4 0 7 1.575 3.543819083688131 7.533793264440317 4.356702766994142 0 0 0
5 0 7 1.575 1.4089198456689989 5.5520437230517095 5.9756231827708755 0 0 0
6 0 7 1.575 7.807407867918209 3.4034781763525177 4.143908509043927 0 0 0
7 0 7 1.575 5.956220505787919 6.581946010864444 1.6828009373354351 0 0 0
8 0 7 1.575 3.4456045266454454 3.457983043012446 7.878880851318081 0 0 0
9 0 7 1.575 4.532920584410721 0.31856942067496263 1.4602822253502934 0 0 0
10 0 6 1.05 2.029950133752566 2.697287465704961 5.117681774804526 0 0 0
11 0 6 1.05 6.479597557295875 6.999308259625421 5.137994500442731 0 0 0
12 0 6 1.05 7.005378306395411 4.857208070284067 6.866371654772882 0 0 0
13 0 7 1.575 2.887551054855637 4.771925219249421 3.2764043135218417 0 0 0
14 0 7 1.575 0.03870416668207793 6.312953246035965 3.1653546625979017 0 0 0
15 0 7 1.575 8.473836227305252 2.038704045921713 6.911325260989473 -1 0 0
16 0 7 1.575 0.8239735889933031 4.244616436973721 1.3943677346750067 0 0 0
17 0 7 1.575 4.018018025201261 1.8497821845435134 3.414047024791647 0 0 0
18 0 7 1.575 4.3563394313412696 6.233666047276758 6.963609523694495 0 0 0
19 0 6 1.05 2.4763335004162825 0.40990053893851974 6.924030652300857 0 0 0
20 0 7 1.575 6.9992567353856705 0.6297566632485727 3.051934822759922 0 0 0
21 0 6 1.05 0.6032220531029251 8.433437009286221 5.010051296508287 0 -1 0
22 0 7 1.575 5.581749588799012 3.5087512592231036 2.0944289067277557 0 0 0
23 0 7 1.575 2.4775018449761332 7.0020172956766 1.5074681074796712 0 0 0
24 0 7 1.575 4.980610598885802 3.8911833174268047 5.199482993159429 0 0 0
25 0 8 -1.05 2.4376020397779636 0.4744982920424282 8.681034010542048 0 1 0
26 0 8 -1.05 6.318322852686999 0.028159842151243453 1.5713800415440857 0 0 0
27 0 8 -1.05 4.637548358295376 2.209800096319144 5.019379508851408 0 0 0
28 0 8 -1.05 4.665948849782597 6.656597207077603 5.293557904862727 0 0 0
29 0 8 -1.05 0.3437062456277339 4.683891077356603 7.075473476417234 1 0 0
30 0 8 -1.05 0.1293382040913093 4.541830493125479 3.0398975118669913 0 0 0
31 0 8 -1.05 6.8273210226750844 6.638744481805052 3.224299172260909 0 0 0
32 0 8 -1.05 2.510503631495883 2.488410533644476 6.843147218492732 0 0 0
33 0 8 -1.05 0.27459334762760496 2.296278023135655 8.638360479031816 1 0 0
34 0 8 -1.05 0.7480705797880083 6.521782941080314 1.5223278493710322 0 0 0
35 0 8 -1.05 4.567720753758271 4.169266048941626 3.434118387889405 0 0 0
36 0 8 -1.05 4.485907947180565 4.3920957188812295 6.795629197641171 0 0 0
37 0 8 -1.05 6.5766556088824775 0.347637858566781 4.814604509342225 0 1 0
38 0 8 -1.05 2.4377163423508383 0.10545499872830431 5.130018807305108 0 0 0
39 0 8 -1.05 2.5713057105932213 6.409978849909035 6.946418085218192 0 0 0
40 0 8 -1.05 6.720911772569765 2.5082183384775094 3.0877222211925077 0 0 0
41 0 8 -1.05 0.25840313999976566 0.4525852618775183 3.15927424602788 1 1 0
42 0 8 -1.05 0.296627147465548 0.2470872305580482 6.856167347112026 0 0 0
43 0 8 -1.05 2.3006300788889598 4.5277651723261085 4.932940101056382 0 0 0
44 0 8 -1.05 6.702072935061276 4.274388110056362 5.160621879998979 0 0 0
45 0 8 -1.05 4.565965687310594 6.418568646280012 8.664342736235133 0 0 0
46 0 8 -1.05 4.5439916970845395 2.1197662528421115 1.7415352919870872 0 0 0
47 0 8 -1.05 6.678875167118218 2.1231158846272224 7.0283000659128865 0 0 0
48 0 8 -1.05 2.74722011282464 6.5155187423132706 3.242686400727719 0 0 0
49 0 8 -1.05 4.347136877369314 0.15271211373060165 3.283671046016491 0 0 0
50 0 8 -1.05 4.573343193403028 0.304771371890196 7.119246340923255 0 1 0
51 0 8 -1.05 0.25158075025758925 2.517021377055698 5.2778506474778615 0 0 0
52 0 8 -1.05 0.4817247722128377 6.5794636331295235 4.854475368245046 1 0 0
53 0 8 -1.05 2.4942937621539145 4.560974027872527 1.6272521199769303 0 0 0
54 0 8 -1.05 6.760593402453047 4.6177726510446115 8.73878872136991 0 0 0
55 0 8 -1.05 2.379285039504693 2.297442340878629 3.364888513809964 0 0 0
56 0 8 -1.05 6.786357491014331 6.709551837415445 6.881282092859288 0 0 0
57 0 7 1.575 1.3412604592429214 1.3906272439995424 9.701183534014827 0 0 0
60 0 7 1.575 3.521131155819069 7.785878321067961 11.537293203738034 0 0 0
62 0 7 1.575 7.743326694286823 3.4347471273360304 11.578492635111505 0 0 0
63 0 7 1.575 5.608432736858195 5.503588143668376 9.667856140972319 0 0 0
65 0 7 1.575 4.271781288479367 0.6193742124768008 8.808779447520884 0 0 0
69 0 6 1.05 2.069622487597245 4.183980798071212 10.62288486710838 0 0 0
70 0 7 1.575 0.6222474422080542 7.047113702428472 10.661680981879318 0 0 0
72 0 7 1.575 0.05419294318047049 4.809245937715751 8.830671252405038 0 0 0
73 0 7 1.575 4.849325378122722 2.7042876281084762 10.631519495501802 0 0 0
76 0 6 1.05 6.335737190078689 8.395299388339803 10.546777408396487 0 -1 0
78 0 6 1.05 6.933102795074974 2.06156543097194 8.906380207283947 0 0 0
79 0 6 1.05 2.665972616504483 6.308877432683231 8.795433133500122 0 0 0
82 0 8 -1.05 6.742757765834119 0.2804134822283153 8.866146971252881 0 0 0
86 0 8 -1.05 0.3177369176311379 4.255774647498051 10.465230786380014 0 0 0
87 0 8 -1.05 6.486127362324841 6.570331052753104 10.674845231691878 0 0 0
90 0 8 -1.05 0.20145482077368776 6.591602946385952 8.966328164252124 0 0 0
91 0 8 -1.05 4.656701359159002 4.453177335347539 10.819699423300298 0 0 0
96 0 8 -1.05 6.570975437482857 2.5584917623837917 10.601607235434184 0 0 0
97 0 8 -1.05 0.4295872308642711 0.29245959639152547 10.663920885022097 1 1 0
102 0 8 -1.05 4.365641336153255 2.362357187438092 8.97193326763784 0 0 0
104 0 8 -1.05 2.3873274117581342 6.90537933400119 10.534579945990586 0 0 0
105 0 8 -1.05 4.535025812291624 0.22939702355655972 10.480989892942233 0 0 0
109 0 8 -1.05 2.549509660989189 4.507431862407783 8.955548547871466 0 0 0
111 0 8 -1.05 2.3064802368623023 2.381373448793899 10.843004574937677 0 0 0
113 0 8 -1.05 6.150314668061391 4.919316411989997 1.315064430135019 0 0 0
114 0 8 -1.05 4.342699364410826 7.043380600628988 1.1333836206884356 0 0 0
115 0 8 -1.05 0.6260648209874335 2.59588895203525 1.1687250418855633 1 0 0
116 0 8 -1.05 2.4546465883723276 0.24446128426778735 1.3840077082610687 0 1 0
93 0 8 -1.05 6.654069915391049 0.3022405506969286 12.257510780699985 0 1 0
108 0 8 -1.05 0.3859174250116651 6.3793504434834825 12.211163792414288 1 0 0
83 0 8 -1.05 4.475712507635903 2.2747106442843177 12.319412398736336 0 0 0
99 0 8 -1.05 2.5516343308368357 4.60083480359106 12.44459408876951 0 0 0
80 0 7 1.575 4.286703581998463 4.857879439220849 12.485370280976674 0 0 0
77 0 6 1.05 8.443774175837726 0.6656092377909333 12.404597981744304 -1 0 0
67 0 6 1.05 7.083650771681533 6.359303686455377 12.48665644432937 0 0 0
66 0 7 1.575 2.710587567300876 2.111624213911277 12.4712654737522 0 0 0
58 0 7 1.575 7.671488353963049 7.654460703298555 15.252876455997693 0 0 0
59 0 7 1.575 5.627331702031887 1.2775946445603066 13.249096300819716 0 0 0
61 0 7 1.575 1.3311772934121802 5.507772363858723 13.406153325101583 0 0 0
64 0 7 1.575 3.5832235905305985 3.345999992617353 15.321665096758553 0 0 0
129 1 12 0.475 4.508259888558154 6.376947691123844 16.949940200193858 0 -1 0
128 2 10 -0.76 0.3519395271015376 4.859127863460166 18.286158661999913 0 -1 0
68 0 7 1.575 6.4572496418431555 4.241894231619716 14.331125920274237 0 0 0
71 0 7 1.575 0.6827575370873881 2.7964546397317616 14.36210427628862 0 0 0
74 0 13 1.575 4.779809968501096 6.9417753825843835 14.382365201052549 0 0 0
75 0 7 1.575 1.9371045962942703 8.413334087988382 14.265787680324086 0 -1 0
127 2 10 -0.76 2.024521428351696 6.2498296272412555 18.100445157581106 0 -1 0
126 2 2 0 1.6634434374897642 5.421181904149745 19.855917953353636 0 -1 0
81 0 8 -1.05 2.548528359638103 0.3994700249133593 15.78969927388632 0 1 0
125 2 9 0.52 1.305223824919808 5.501232654056692 18.76371864220648 0 -1 0
84 0 8 -1.05 4.291156040946347 6.574414052022647 12.676266214116058 0 0 0
85 0 8 -1.05 0.2832706195099592 4.475964786873912 14.29912270112316 1 0 0
88 0 8 -1.05 2.4058312268731052 2.5399549009912907 14.152727809425821 0 0 0
89 0 8 -1.05 0.046301365974597886 2.3616541582011643 15.841598341113022 1 0 0
92 0 8 -1.05 4.6734051371043615 4.471927856230181 14.208141381596056 0 0 0
124 0 7 1.575 8.109549975652842 4.922285495106136 16.747014294053653 -1 0 0
100 0 8 -1.05 6.737080928197164 4.530230561009402 12.545302038499957 0 0 0
95 0 8 -1.05 2.125991078482092 6.684752337553003 14.398329463941199 0 0 0
98 0 8 -1.05 0.25043063174155195 0.01503578086893438 14.135358554457627 0 0 0
123 0 7 1.575 6.827038996928879 2.084811846285043 15.94871627094144 0 0 0
122 0 13 1.575 1.9045295463590397 6.220717285043661 16.329438833721156 0 0 0
101 1 11 -1.05 4.381347868765491 6.903031481889439 16.076252850268123 0 0 0
103 0 8 -1.05 6.484566460180236 2.454965804961091 14.211610664431442 0 0 0
106 0 8 -1.05 4.69123259263863 0.1982839659359811 14.255476628067534 0 1 0
107 0 8 -1.05 0.21543049047441093 2.4084824791712434 12.65758083826171 0 0 0
121 0 13 1.575 4.2104097384136 0.4883082482241956 16.009353777272924 0 0 0
110 0 8 -1.05 6.705093950503509 4.228128873469786 16.102950891685026 0 0 0
112 0 8 -1.05 6.550557669316923 6.6733154377822625 14.306176702540371 0 0 0
117 0 8 -1.05 2.6458330952860183 4.572733645199952 15.954928389018328 0 0 0
118 0 8 -1.05 4.586030022960897 2.180157888706591 16.11867179447721 0 0 0
119 0 8 -1.05 0.11901847852081526 6.486119153921278 16.129527883520986 0 0 0
120 0 8 -1.05 6.657476467518724 0.330769679159977 16.06269927954792 0 0 0
94 0 8 -1.05 2.6026994048837238 0.35326085131292484 12.634385140813013 0 0 0

Velocities

1 5.946083347578076e-12 6.494041073369747e-12 1.6041330248305735e-12
2 -7.086307692809962e-12 -1.552914388162057e-11 1.01515948753601e-11
3 -6.4100134155546815e-12 -2.809537569140019e-12 -4.620725452979108e-12
4 -2.8432213115960317e-14 1.1191071267023272e-11 -3.0639134594333014e-12
5 -1.068894235421725e-11 5.057317326609984e-12 3.210129379872819e-12
6 -3.745535978725585e-12 1.1025104423628176e-11 -1.1357232523289821e-11
7 -2.714953194362221e-14 -6.743077844648488e-14 -4.095125998982376e-12
8 6.53782035288721e-13 -2.5559145150339054e-12 8.176965501834705e-12
9 -2.716788860649716e-12 3.0356872118016293e-12 -3.2427327544851436e-12
10 2.642429051358952e-12 4.121078651700656e-13 8.89803201170245e-13
11 -3.925111027413704e-12 -1.2061125713624737e-12 -1.5983472590054278e-11
12 2.806052578548588e-13 1.5701853069646785e-12 1.8851096804104366e-12
13 1.1496338332122252e-11 -4.9833778567363005e-12 1.396102743926723e-12
14 2.624878658017234e-12 -4.8826912360013216e-12 -6.700554885324601e-12
15 -5.458755613401356e-13 -8.81900978084402e-13 6.877683346326491e-12
16 1.6911277297992001e-12 5.090828828225352e-12 5.706558564492557e-12
17 -3.4442110000123496e-12 -1.0002351965996946e-13 3.3027636377757335e-12
18 -1.993598591919881e-13 3.786072194050809e-12 -9.903827554661108e-12
19 6.719510882127606e-13 4.950240961527362e-12 -1.4268851535165508e-11
20 2.2827454218046057e-12 8.84906250748049e-12 6.070747870902848e-12
21 7.1731797385316495e-12 -3.1742200003904533e-13 -4.440698117584993e-12
22 5.459627833115301e-13 4.1022930249052705e-12 -7.928683920550517e-12
23 4.1445693886747206e-13 -1.0492783740992105e-11 4.4528262585449e-13
24 8.733723718290215e-12 1.2109119878754982e-11 -1.1466340941365585e-11
25 2.579490122968549e-11 3.640747812124247e-12 6.47341253495803e-11
26 -1.4813610092756934e-12 2.0708654524804537e-11 8.524148398512211e-12
27 1.895271485766693e-11 -1.943287298792773e-11 2.91607365750917e-11
28 -1.3712363201982089e-12 -2.4040235574186018e-11 1.1099572459588058e-11
29 7.119973977917056e-12 2.0470603650006517e-11 3.3019173784705645e-12
30 1.3453427844317057e-11 -4.063886151292915e-11 1.533165686902917e-11
31 -2.6043846404368855e-12 1.4529145321949486e-11 1.7134632523479963e-11
32 -2.5386678475766724e-11 -3.870649441173876e-11 -3.769036498776064e-12
33 1.1498150894841383e-11 -3.0372062440301224e-11 -1.4092969140922024e-11
34 1.1330530653850951e-11 -6.546001808718608e-12 3.119730850455127e-11
35 -4.008756521231769e-11 2.375054271347716e-11 2.746004995208547e-11
36 9.05726463229202e-12 3.614191958674561e-11 4.3606487896601605e-12
37 3.154403512186409e-11 -3.4571409151296593e-12 1.5775379226260236e-11
38 -1.898514692527387e-11 1.8186751059855937e-12 3.71859375441491e-11
39 7.046643149618489e-13 7.47959705372225e-12 8.036787170655195e-12
40 3.27435665984266e-11 -2.910825903688132e-11 4.156711326886477e-12
41 -2.9538521732175586e-11 3.160271316135732e-13 4.8004653885744105e-12
42 -1.4686715321356734e-11 3.789851500736015e-11 -1.4237528545075626e-11
43 2.6509251292721623e-11 -2.5578208550792877e-11 -3.763448557807337e-11
44 -4.986943236744315e-11 1.0757615132041444e-11 2.8730352156620022e-11
45 -2.607965137582705e-11 -1.0193900813760161e-11 -1.3424221728943844e-11
46 2.665140355483342e-11 -1.0019700647891248e-11 -1.2786165453190389e-11
47 3.0855325189936934e-11 2.1206794154095678e-11 -3.281716049525046e-11
48 -2.6552022152366886e-12 3.8738335882847185e-12 -1.1801970858199351e-11
49 3.1598622308223728e-12 8.259428145739854e-12 3.881611701629389e-12
50 -1.875680223260157e-11 7.365033254207197e-12 -5.88755560002779e-12
51 6.844514005253659e-13 -2.8085586736271972e-11 -1.501948589138739e-11
52 -7.093254515385531e-12 2.065538787452374e-12 1.3803260579762511e-11
53 -3.1483832640277285e-11 -2.281280117116619e-12 -1.058131994298252e-11
54 1.1280129811901632e-12 -3.3200410639013383e-12 -4.210585171396278e-11
55 -3.4820850490838896e-11 -1.5565298002490163e-11 -1.3327949432472881e-11
56 3.079563934269204e-11 -1.29963987376512e-11 6.565820412036116e-12
57 6.4274795805358454e-12 8.281683071003919e-12 -3.889893035279966e-12
60 -6.665140505206006e-13 -1.5958704269471792e-11 1.3089851201940763e-11
62 -7.1458250782271616e-12 5.0602509347806854e-12 5.3587755472975256e-12
63 1.023215976731567e-12 -1.3508812807078414e-12 1.7884728774101253e-11
65 -9.860681350569765e-12 -8.95269331127158e-12 -8.596221814402807e-12
69 1.0949358040184332e-11 -3.593838210582451e-13 1.5894943654389352e-11
70 8.827315675177828e-12 -7.972899324931065e-13 -1.425761124220418e-11
72 -5.204971740783296e-12 -4.430072682969817e-12 -1.5130869101153241e-12
73 -1.3185910352305196e-13 7.046072408120623e-12 7.047737480107823e-12
76 8.435621714469894e-13 -1.1570555021218038e-11 9.019035290240927e-12
78 1.0504114443000244e-12 8.10139293620568e-12 -5.110528933290869e-12
79 1.3277908624449172e-12 5.472254800834505e-12 9.311885758492445e-12
82 2.5500430458224428e-11 -3.308720802383504e-11 -1.1273586592998704e-11
86 -4.0894635458892036e-11 2.8140514147531613e-11 1.0691952520716459e-11
87 2.25733541641101e-11 1.4344129685150454e-11 2.4311812941219238e-11
90 1.510907428952666e-11 1.921250132691286e-11 8.020137379744903e-12
91 1.2471220867549702e-11 1.1559211520703426e-11 -5.5512634255116976e-11
96 2.3425213217831196e-11 -1.8498391801925124e-11 4.484823133914254e-12
97 5.43449219880671e-12 -6.01177750292245e-12 1.9425592241151056e-11
102 2.181926442799757e-11 4.500227915875731e-11 -1.2637068260746062e-11
104 1.244929105450617e-11 -7.575230354019764e-12 1.3398452117638442e-12
105 -2.845128508411688e-11 -9.437990847749549e-12 -3.8655234866074415e-13
109 4.117608036201329e-12 -9.607502798531256e-12 -6.288279152222805e-11
111 -2.7448497553344727e-11 -3.453946378432617e-11 -7.368043292756431e-11
113 7.1505545533633716e-12 -2.5346930143653468e-11 5.6905202214612575e-12
114 -3.7538269621135825e-11 -1.7035513000521445e-11 1.2191943984835848e-12
115 -6.2364307485456165e-12 -2.8269523448072722e-11 2.0489776409786146e-11
116 7.160887761310346e-12 2.1190759493717717e-11 1.239715620642072e-11
93 1.5657634585991228e-12 3.116206285168004e-11 4.1664706320354266e-11
108 -8.04305863930063e-12 1.6796165551498943e-11 3.148867025117092e-11
83 1.1837547650323432e-11 -8.788687882077662e-12 -1.0148908964213718e-11
99 -6.17889736891301e-11 -8.26681705710749e-12 -1.9399042609821896e-11
80 -5.416501274927159e-12 -4.580839958214556e-13 1.1121593664703092e-11
77 -1.2751667351899968e-11 -8.080424448001904e-12 4.731669979560451e-12
67 -1.1237521714768137e-11 -1.2379991948810235e-13 -2.289622689414504e-12
66 8.831686312298875e-12 -7.581435453514531e-13 1.9559675611583635e-11
58 -9.85350050839875e-12 6.8886322985530305e-12 2.8537622473058435e-12
59 -1.3008327901186668e-12 7.714211027599584e-13 4.064463669571814e-12
61 1.049003107889697e-11 4.388609478580119e-13 -6.31700655375023e-12
64 5.5233643559717045e-12 3.4580482873863665e-12 -5.472754042899876e-12
129 3.290156103321216e-11 1.8362156179399363e-10 3.9424283784547524e-10
128 -7.389507930414185e-11 -3.3444491797740935e-11 -5.689238616687339e-11
68 -6.454008322770488e-12 1.7548314962038403e-12 2.66647411347191e-13
71 7.448964571768383e-12 2.6603874689266468e-12 -4.422334034435889e-12
74 8.848060978743217e-12 -1.070508662551922e-11 -3.3064477743101777e-12
75 1.4442642276834168e-11 -3.762701409749807e-12 5.199650770820962e-12
127 3.6609939061635186e-11 5.791881750128363e-11 -1.3715355392746707e-10
126 -6.031974827710267e-10 -3.345595124639175e-10 -2.55067086163037e-11
81 -3.754395557244031e-11 -3.873525044907229e-11 6.38009792803397e-12
125 7.781300207059856e-11 -2.6443082990571025e-12 1.0939955526927253e-10
84 2.384544328733361e-11 7.25312780060413e-11 -4.2076445578106696e-11
85 8.541102200442503e-12 2.5071401842227485e-11 -1.5760185906421448e-11
88 1.6511388882499417e-11 7.637979314805353e-12 -1.6620267347839873e-11
89 -2.553057944602739e-11 -2.0379091232841287e-11 4.9005421391416955e-11
92 1.7207570148319873e-11 -3.614945952178867e-11 -3.067184050652547e-11
124 -3.0678818917990987e-12 -9.151083019082174e-13 8.787147543761463e-12
100 1.7990591257947252e-11 -1.2714640590815685e-11 2.115333578176537e-11
95 -7.702457036563329e-13 -1.9348638386038518e-11 1.0340676355337809e-11
98 -3.888781714108996e-11 3.0774539085684057e-11 -2.418435205030422e-11
123 -5.132835940674626e-12 -5.813488177730427e-12 1.015703772653049e-12
122 2.023209089916534e-11 -1.1895963278146315e-11 -3.4437080321863684e-12
101 -8.668132355942875e-12 1.3715580579339289e-11 -1.8614279468099595e-11
103 -1.701046949783727e-11 -3.890598958875997e-11 5.492631777608749e-13
106 1.890497835479811e-11 5.401034861269579e-11 -7.384448313302965e-12
107 1.6117025886022412e-11 1.6929419227515702e-11 -2.2900365527481516e-11
121 1.5664419308644987e-11 -5.76572627089544e-13 1.3041755471961375e-12
110 1.949428162160447e-11 8.020222026588875e-12 -1.8247160536947128e-11
112 -8.39258860441366e-12 -2.9921365825495754e-11 -3.3719423354195466e-11
117 -9.603222476164784e-11 9.234500146688187e-11 6.6282052232074e-11
118 9.929569987656706e-12 -8.320967804804447e-12 -1.0717376398070358e-11
119 3.256998029986503e-11 -4.3520547230902803e-11 3.9501011944796055e-11
120 1.542856538553272e-11 4.168454566688879e-11 3.223028190847536e-12
94 -6.088127206163236e-11 -1.9063975145420818e-11 -1.6498085747335396e-11

Bonds

1 7 129 101
2 5 125 126
3 6 125 127
4 6 125 128

Angles

1 6 127 125 128
2 5 126 125 128
3 5 126 125 127
4 7 129 101 121

Impropers

1 2 125 127 128 126
