LAMMPS data file via write_data, version 10 Feb 2021, timestep = 10000

1161 atoms
15 atom types
36 bonds
7 bond types
36 angles
7 angle types
0 dihedrals
2 dihedral types
9 impropers
2 improper types

0 25.44 xlo xhi
0 25.44 ylo yhi
0 100 zlo zhi

Masses

1 12.011
2 1.008
3 15.9994
4 15.9994
5 1.008
6 55.845
7 55.845
8 15.9994
9 12.011
10 15.9994
11 15.9994
12 1.008
13 55.845
14 15.9994
15 1.008

Pair Coeffs # lj/charmm/coul/long

1 0.098 3.02906 0.098 3.02906
2 0.046 1.60362 0.046 1.60362
3 0.12 3.02906 0.12 2.49452
4 0.1921 3.14487 0.1921 3.14487
5 0.046 0.400014 0.046 0.400014
6 9.0298e-07 4.07222 0 0
7 9.0298e-07 4.07222 0 0
8 0.1554 3.16554 0 0
9 0.07 3.56359 0.07 3.56359
10 0.12 3.02906 0.12 3.02906
11 0.1554 3.1655 0 0
12 0 0 0 0
13 9.0298e-07 4.07222 0 0
14 0.1554 3.1655 0 0
15 0 0 0 0

Bond Coeffs # harmonic

1 348 1.096
2 750 1.22
3 230 1.4
4 545 0.96
5 238 1.1422
6 525 1.26
7 554.135 1

Angle Coeffs # charmm

1 55 115 0 0
2 39 119 0 0
3 47 105 0 0
4 50 123 210 2.262
5 45 116 0 0
6 100 128 70 2.2587
7 30 109.47 0 0

Dihedral Coeffs # charmm

1 3.45 2 180 1
2 2.05 2 180 1

Improper Coeffs # harmonic

1 75 0
2 67 0

Atoms # full

1 0 7 1.575 0.9692948884182205 1.3290856493307905 2.2328902685862895 0 0 0
2 0 7 1.575 7.520110851078118 7.6560489323450245 7.640471656326961 0 0 0
3 0 7 1.575 5.186858055689439 1.2942813918583775 6.046306327609867 0 0 0
4 0 7 1.575 2.9523807941385796 7.573923108696658 4.3996923955570795 0 0 0
5 0 7 1.575 1.4265089581846506 5.519107133843115 6.436362799779332 0 0 0
6 0 7 1.575 7.279309978291379 3.3745671625238662 4.126757910600017 0 0 0
7 0 7 1.575 5.519533583856264 6.578077492317827 1.5936887863957292 0 0 0
8 0 7 1.575 3.397933434279918 3.340853730577961 8.233106262876065 0 0 0
9 0 7 1.575 3.78556756522906 0.3978551739958473 1.4796214762193483 0 0 0
10 0 6 1.05 2.144054024880956 2.2872589206531093 5.531771591425243 0 0 0
11 0 6 1.05 6.012429853620142 6.992691301725079 4.937411129826527 0 0 0
12 0 6 1.05 6.742390115848005 4.927884547082179 6.88111557906007 0 0 0
13 0 7 1.575 2.246574534921137 4.418720806819025 3.377887137514868 0 0 0
16 0 7 1.575 0.2628345466330613 4.38618105346464 1.46799788686214 0 0 0
17 0 7 1.575 3.7474793466757976 1.9614159041267474 3.4833776092945605 0 0 0
18 0 7 1.575 4.280648936397655 6.709550887012758 7.078928598204759 0 0 0
19 0 6 1.05 2.446974578534006 0.09579161499233091 7.286747400108289 0 0 0
20 0 7 1.575 6.614685755652044 0.7058118685622788 2.9984863032302123 0 0 0
21 0 6 1.05 0.29951657733528836 8.682228890549474 5.418277673869898 0 0 0
22 0 7 1.575 5.086546394189432 3.5441624188358776 1.9587327413692328 0 0 0
23 0 7 1.575 2.0548746996176566 6.69704401838123 1.596475590434416 0 0 0
24 0 7 1.575 4.389110301739875 4.217754373137846 5.282030324593948 0 0 0
27 0 8 -1.05 4.145975990194718 2.3521960401746806 5.142276945639515 0 0 0
28 0 8 -1.05 4.246272293317268 6.699360389648945 5.230841909329008 0 0 0
29 0 8 -1.05 0.3390642202348103 4.711770752190216 7.672686157145963 0 0 0
30 0 8 -1.05 0.304051013307502 4.5590413624597375 3.547451575710402 0 0 0
31 0 8 -1.05 6.403900125821026 6.668756016247789 3.1835509634389694 0 0 0
32 0 8 -1.05 2.177240720863385 2.379451661157655 7.39456124700082 0 0 0
34 0 8 -1.05 0.08168234255727214 6.46576221645932 1.4463564281747656 0 0 0
35 0 8 -1.05 4.019266602597317 4.125023022629492 3.375259236217982 0 0 0
36 0 8 -1.05 4.259646357225966 4.316514947136121 7.066277482801902 0 0 0
37 0 8 -1.05 6.055869214171177 0.4370067111638515 4.800316126575691 0 0 0
38 0 8 -1.05 2.1375446546681798 0.301767419966624 5.445004718680202 0 0 0
39 0 8 -1.05 2.5321112877491103 6.511360177866791 7.364980122830937 0 0 0
40 0 8 -1.05 6.226074861953755 2.4660064913892468 3.0225093025364718 0 0 0
41 0 8 -1.05 0.21535709707680595 0.24521629492260805 3.4966555960661165 0 0 0
42 0 8 -1.05 0.34461341625995706 0.21833854706112035 7.488529296570497 0 0 0
43 0 8 -1.05 2.3682936465143483 4.573311462307005 5.306709726088581 0 0 0
44 0 8 -1.05 6.147144117669618 4.4345359044634955 5.129029214059939 0 0 0
46 0 8 -1.05 4.038206628220247 2.1339209082106487 1.7326948761826648 0 0 0
47 0 8 -1.05 6.408836628179667 2.1679972745194154 6.9157085357583545 0 0 0
48 0 8 -1.05 1.894348145282945 6.652941951839352 3.407801117721424 0 0 0
49 0 8 -1.05 3.878806716058039 0.2591389753351289 3.3859936734675227 0 0 0
50 0 8 -1.05 4.325947914972014 0.340048270489956 7.258200496207972 0 0 0
51 0 8 -1.05 0.3454695457194417 2.4698934997363824 5.688411467886163 0 0 0
52 0 8 -1.05 0.31412930093753905 6.449745993995239 5.507603320896849 0 0 0
53 0 8 -1.05 1.9717948239524983 4.789767323935891 1.562343417041134 0 0 0
55 0 8 -1.05 2.070222035287931 2.3607795977122503 3.5035160901756246 0 0 0
56 0 8 -1.05 6.3806001258208145 6.66910848445044 6.7754128501517314 0 0 0
113 0 8 -1.05 5.752436567503951 4.954614707274046 1.2039567974310172 0 0 0
114 0 8 -1.05 3.8057168761627076 6.823226848176078 1.4793523855328876 0 0 0
115 0 8 -1.05 0.3001415995693025 2.6534815057744856 1.4310712130333878 0 0 0
116 0 8 -1.05 2.010068453156055 0.15994870095872576 1.4553884792150276 0 0 0
388 0 7 1.575 0.8469340258591379 9.713976479054462 2.290308580731524 0 0 0
390 0 7 1.575 5.266813885890275 9.644450178612445 5.9834949574760135 0 0 0
393 0 7 1.575 7.312790001587042 11.837065085741225 4.098363965252784 0 0 0
395 0 7 1.575 3.5029100812433582 11.866733881046942 8.071522547125277 0 0 0
396 0 7 1.575 3.832708610022048 8.68989473882619 1.5718278031576443 0 0 0
397 0 6 1.05 2.0366824825946694 10.585245099146222 5.347113831093293 0 0 0
404 0 7 1.575 3.7364041047297145 10.393022395320413 3.4194067333967264 0 0 0
406 0 6 1.05 2.344761722110173 8.729217555714307 7.233701314476602 0 0 0
407 0 7 1.575 6.554387381592669 9.104985811891845 2.9283513031709667 0 0 0
409 0 7 1.575 5.064610221175535 12.01902825614888 1.9358697180977742 0 0 0
411 0 7 1.575 4.528866485822336 12.571053946449217 5.147148189798226 0 0 0
413 0 8 -1.05 5.719531574289213 8.45569911592817 1.50199521053698 0 0 0
414 0 8 -1.05 4.207967803955715 10.787251341443252 5.104612918824258 0 0 0
419 0 8 -1.05 2.3562976725714724 10.836328640779492 7.215147820370031 0 0 0
424 0 8 -1.05 6.10167089759977 8.887810736175318 4.671862134308517 0 0 0
425 0 8 -1.05 2.0978140775952276 8.664800948749091 5.340921883732992 0 0 0
427 0 8 -1.05 6.2100999922484155 10.972203076725622 2.998601305528951 0 0 0
428 0 8 -1.05 0.05360554922583542 8.718413154813138 3.4705199790852532 0 0 0
429 0 8 -1.05 0.43506240075049735 8.721407986355866 7.434961528912844 0 0 0
433 0 8 -1.05 4.032437881341129 10.593480032932682 1.7338350724161082 0 0 0
434 0 8 -1.05 6.4987034634811645 10.651227674005561 6.814811733398755 0 0 0
436 0 8 -1.05 3.893071584500804 8.665021586286896 3.3690817721066395 0 0 0
437 0 8 -1.05 4.363768648214339 8.653234728783753 7.103989436775025 0 0 0
438 0 8 -1.05 0.2918252226342935 10.80101322210483 5.6585446673250965 0 0 0
442 0 8 -1.05 1.9907667028940057 10.689985739112943 3.438811768490222 0 0 0
502 0 8 -1.05 0.16729555393756326 11.060481945651677 1.4552226215550073 0 0 0
503 0 8 -1.05 1.9932069868032236 8.580231931643482 1.5307630125306662 0 0 0
422 0 8 -1.05 4.065314793327122 12.684282720120782 3.3836235092186198 0 0 0
272 0 7 1.575 0.1387202687600803 6.423114807574297 3.7168211553934896 1 0 0
144 0 7 1.575 8.112107018486446 1.8776240410834153 6.77430448474632 0 0 0
531 0 7 1.575 8.21838428176153 10.364490967174536 6.671207669879406 0 0 0
14 0 7 1.575 8.031371868889135 6.100148113321509 3.078917519093339 0 0 0
795 0 6 1.05 0.29064409611240277 0.11236376931911946 5.642343183523789 0 1 0
159 0 8 -1.05 8.087823700447338 4.39234426763406 3.0193941929080705 0 0 0
170 0 8 -1.05 8.342562984270689 0.5178503578711862 3.174708255073021 0 0 0
171 0 8 -1.05 8.271477092689835 0.1655048200734533 6.619178091768763 0 0 0
180 0 8 -1.05 8.320817315717575 2.52334571633667 5.142149272217403 0 0 0
557 0 8 -1.05 8.322046130308513 8.954719530779068 3.0477763189428186 0 0 0
15 0 7 1.575 0.34726715142412623 2.118881395531889 7.509336776224099 0 0 0
402 0 7 1.575 0.2906706619465319 10.619038018377946 7.430752104671751 0 0 0
385 6 10 -0.76 18.86469992525535 6.06838029335633 17.883589891181458 0 0 0
130 0 7 1.575 9.585878522824963 1.2904584841470164 2.062210300409071 0 0 0
131 0 7 1.575 16.367001403598945 7.662737961940166 7.6133848521049705 0 0 0
132 0 7 1.575 14.13592953349998 1.2253808870489995 5.739760693643221 0 0 0
133 0 7 1.575 11.873094556159417 7.482903166471608 4.106903288344143 0 0 0
134 0 7 1.575 9.651451072172259 5.540090318264247 5.649491637979596 0 0 0
135 0 7 1.575 16.311493433011016 3.4727150981303683 4.053396673585153 0 0 0
136 0 7 1.575 14.692931226980644 6.389178035584641 1.6213058458742022 0 0 0
137 0 7 1.575 11.777274323500981 3.280364932378487 7.556884061051322 0 0 0
138 0 7 1.575 13.04998318013411 0.2469477179019811 1.4506624594465052 0 0 0
139 0 6 1.05 10.153973859292227 2.705349258858082 4.890671861363925 0 0 0
140 0 6 1.05 14.886334983433896 6.945972121850808 4.747509588877934 0 0 0
141 0 6 1.05 15.644134981899734 4.940390006012586 6.604957401072985 0 0 0
142 0 7 1.575 11.372135486088483 4.7512632595034985 2.973772552237761 0 0 0
145 0 7 1.575 8.930311216328336 4.069746698550933 1.5251689809322388 0 0 0
146 0 7 1.575 12.315054176003551 1.8782921723141626 3.2374020270682835 0 0 0
147 0 7 1.575 12.579493117267829 6.007283779098751 6.666619996986152 0 0 0
148 0 6 1.05 11.213278074748207 0.6645238529652407 6.661549225516755 0 0 0
149 0 7 1.575 15.714890968449188 0.7534466328893761 2.9787116201272665 0 0 0
150 0 6 1.05 8.816029059001211 8.359419565085972 4.758381321426661 0 0 0
151 0 7 1.575 14.254323266228198 3.388987549071593 1.8164000439531136 0 0 0
152 0 7 1.575 10.38222211032668 6.809843770836885 1.3549246621955404 0 0 0
153 0 7 1.575 13.391931060434201 3.9736731830010847 4.925951433034735 0 0 0
156 0 8 -1.05 13.177323101162386 2.236792054973705 4.79948011785157 0 0 0
157 0 8 -1.05 13.004815120974019 6.474145585611471 5.0050988367112765 0 0 0
158 0 8 -1.05 8.707184976444168 4.6283491637819365 6.773594014877229 0 0 0
160 0 8 -1.05 15.54696809308822 6.410006891518932 3.092910670941408 0 0 0
161 0 8 -1.05 10.851336584149664 2.3496415287064507 6.50679734036589 0 0 0
163 0 8 -1.05 8.737179615270854 6.3532239396764485 1.4975525251581505 0 0 0
164 0 8 -1.05 12.985653660495606 4.148479583918295 3.1478141947490434 0 0 0
165 0 8 -1.05 12.769300669905308 4.3000064705268946 6.516360301621082 0 0 0
166 0 8 -1.05 15.13799546148461 0.3193785560664691 4.556757306616273 0 0 0
168 0 8 -1.05 10.892215216150497 6.372066488996332 6.6074272803072 0 0 0
169 0 8 -1.05 15.330259062844844 2.484438355198003 2.917970762236063 0 0 0
172 0 8 -1.05 10.705331287947748 4.438288430794095 4.588305627733878 0 0 0
173 0 8 -1.05 15.086591304100654 4.380931544673393 4.923924702522158 0 0 0
175 0 8 -1.05 13.037050748845505 2.0436132009107792 1.5277586724778467 0 0 0
176 0 8 -1.05 15.16506781404237 2.1111623767044243 6.807770441116365 0 0 0
177 0 8 -1.05 10.991885633762562 6.496092695936804 2.969736832620346 0 0 0
178 0 8 -1.05 12.674950604102499 0.1968752134705687 3.2263828786933026 0 0 0
179 0 8 -1.05 13.04215165840386 0.2726481749634168 6.826070258885134 0 0 0
181 0 8 -1.05 8.709968497384995 6.503441561692211 4.627306943379024 0 0 0
182 0 8 -1.05 10.6317440248185 4.562594400613922 1.4304164550507121 0 0 0
184 0 8 -1.05 10.615811351758401 2.287436510148811 3.121291367310076 0 0 0
185 0 8 -1.05 15.518721510314835 6.741066535029845 6.454381448561009 0 0 0
242 0 8 -1.05 14.976150469904963 4.747785191772196 1.1280119753817592 0 0 0
243 0 8 -1.05 13.142930769790988 6.846125601260232 1.0907895118828907 0 0 0
244 0 8 -1.05 8.753971223082583 2.4730695659441007 1.1456136090594295 0 0 0
245 0 8 -1.05 10.768732460320784 0.1744120217690142 1.390594123890345 0 0 0
517 0 7 1.575 9.562201193402503 9.660694764117698 1.952055130745217 0 0 0
519 0 7 1.575 14.086071437821326 9.643374642611379 5.644359367251226 0 0 0
522 0 7 1.575 16.285851886457657 11.92383925231377 3.9022296107486834 0 0 0
524 0 7 1.575 11.816225431402648 11.739329446071357 7.372291520975963 0 0 0
525 0 7 1.575 13.275245118890787 8.58940580082344 1.318294129436909 0 0 0
526 0 6 1.05 10.229701067985012 11.149282551203788 4.745997047148921 0 0 0
533 0 7 1.575 12.31631348437044 10.233786465623007 3.0548149181598765 0 0 0
535 0 6 1.05 11.188743502583131 9.015567472278748 6.473023844681615 0 0 0
536 0 7 1.575 15.845999232191444 9.175238609023546 2.891960396817651 0 0 0
538 0 7 1.575 14.285268385762976 11.740567715539623 1.6705668030061467 0 0 0
540 0 7 1.575 13.398508649611115 12.476609182724392 4.741960142341218 0 0 0
542 0 8 -1.05 15.024257881478778 8.518157716159706 1.5287352779185264 0 0 0
543 0 8 -1.05 13.148563517212168 10.702973307925735 4.622233015263159 0 0 0
548 0 8 -1.05 10.945886539762302 10.794140179256875 6.264456505204322 0 0 0
553 0 8 -1.05 15.132817989404575 8.79465251992965 4.454494779817549 0 0 0
554 0 8 -1.05 10.67539582424646 8.480222632832078 4.870447148653717 0 0 0
556 0 8 -1.05 15.383872144509162 10.937882554414461 2.7618294934887877 0 0 0
558 0 8 -1.05 8.34862289143094 8.679141261875019 6.5325024570360055 0 0 0
562 0 8 -1.05 13.076016142030227 10.434234360022359 1.390688682229296 0 0 0
563 0 8 -1.05 15.198549622331191 10.569782011810407 6.648550913101665 0 0 0
565 0 8 -1.05 12.6931961733566 8.56705257225416 3.0511511329406713 0 0 0
566 0 8 -1.05 13.025843224359182 8.772623169929464 6.711563239753096 0 0 0
567 0 8 -1.05 8.470433687835122 10.936147787386808 5.0259097877851575 0 0 0
571 0 8 -1.05 10.684605229330948 10.608871505970384 2.96542091767663 0 0 0
631 0 8 -1.05 8.712180107531884 10.877986948374014 1.045390944173832 0 0 0
632 0 8 -1.05 10.561065209111678 8.46068193476492 1.1383092478347165 0 0 0
532 0 7 1.575 8.928899983081616 12.468216206375503 1.3925708852103964 0 0 0
154 0 8 -1.05 10.529355637061004 0.21468077944106087 8.316167161965017 0 0 0
162 0 8 -1.05 8.631355895889715 2.3570457413011394 8.405080379714347 0 0 0
174 0 8 -1.05 13.204426541914492 6.5316248620098065 8.169455914756345 0 0 0
183 0 8 -1.05 15.099115699162397 4.617876585152649 8.332375393608258 0 0 0
208 0 6 1.05 10.512338950326283 6.974057737843802 8.260046311524256 0 0 0
541 0 8 -1.05 10.635854155267007 8.764410017680271 8.173106180752315 0 0 0
549 0 8 -1.05 8.733216584431698 10.872992042772125 8.234961879855838 0 0 0
581 0 7 1.575 13.38695215021576 8.308836741744754 8.34964902184198 0 0 0
273 0 7 1.575 16.903133558617938 1.9499979040879738 6.840355848197268 0 0 0
660 0 7 1.575 16.945600363456027 10.451406138008757 6.6764714215299765 0 0 0
143 0 7 1.575 17.261814562413107 6.16577404187289 3.115403996308521 0 0 0
259 0 7 1.575 18.819744052565458 1.2461024867245623 2.3077720262919783 0 0 0
260 0 7 1.575 24.779241058315982 7.743530513176114 8.480474305941206 0 0 0
261 0 7 1.575 22.875862133222363 1.2735653728218777 6.545715034728861 0 0 0
262 0 7 1.575 20.97932406827187 7.5991707834695505 4.578708030824318 0 0 0
263 0 7 1.575 18.595375326000998 5.550763191089625 5.966396534791275 0 0 0
264 0 7 1.575 24.92391278010443 3.465872735297645 4.720569518628062 0 0 0
265 0 7 1.575 23.482728019342883 6.376349784612568 1.528029704381909 0 0 0
266 0 7 1.575 20.44295931760295 3.4199818909751736 8.230286921395374 0 0 0
267 0 7 1.575 21.820836366546615 0.36128726013637386 1.6793717904747858 0 0 0
268 0 6 1.05 19.107121299348297 2.763126699237203 5.232487555139075 0 0 0
269 0 6 1.05 23.755373440944737 6.806482094090508 5.649203396855264 0 0 0
270 0 6 1.05 23.983854567320147 4.755994847830026 7.404332258986255 0 0 0
271 0 7 1.575 20.30891975764788 4.812494248560488 3.4202444461273016 0 0 0
274 0 7 1.575 18.17079350665916 3.9940987771549294 1.584793637242827 0 0 0
275 0 7 1.575 21.334075674319525 2.018507877111587 3.8272994977273838 0 0 0
276 0 7 1.575 21.338819501228556 6.2194392592223275 7.361233536530192 0 0 0
277 0 6 1.05 19.54803228284159 0.7026515701483458 7.057820826852117 0 0 0
278 0 7 1.575 23.89760750223831 0.6384231705461308 3.5273353267337204 0 0 0
279 0 6 1.05 18.021605165640985 8.256950255032615 4.955392672247566 0 0 0
280 0 7 1.575 22.924654002471303 3.365018494231184 2.4025654520328685 0 0 0
281 0 7 1.575 19.974537005255034 6.771957118390682 1.6523436594124656 0 0 0
282 0 7 1.575 22.057591290344405 4.1155156944284705 5.613835737502879 0 0 0
285 0 8 -1.05 21.848371518727582 2.385998325767121 5.477320252963044 0 0 0
286 0 8 -1.05 21.85904525543649 6.570318185846953 5.660916754490708 0 0 0
287 0 8 -1.05 17.40971094191272 4.668653970687164 7.012974011482806 0 0 0
288 0 8 -1.05 17.295179966627916 4.371032793399395 3.0298303100828656 0 0 0
289 0 8 -1.05 23.855526082732986 6.7120309816514325 3.4933716963606725 0 0 0
290 0 8 -1.05 19.453593139108914 2.5206294737270993 7.0537833237789584 0 0 0
292 0 8 -1.05 18.22105743893428 6.489437838675513 1.7312328886501374 0 0 0
293 0 8 -1.05 21.896664843799574 4.093017046882438 3.682688324648562 0 0 0
294 0 8 -1.05 21.453966600976038 4.449479268458052 7.209154961175449 0 0 0
295 0 8 -1.05 23.825298358186835 0.4439338452233951 5.383926298856935 0 0 0
296 0 8 -1.05 19.68798265530572 0.20863364544889879 5.249287476253154 0 0 0
297 0 8 -1.05 19.577615608670566 6.3582495569644735 7.106693431372906 0 0 0
298 0 8 -1.05 23.843060394977336 2.4239641924837247 3.5868741031543405 0 0 0
299 0 8 -1.05 17.496336200479327 0.5123823762455492 3.180547724822776 0 0 0
300 0 8 -1.05 17.32998584333006 0.2856803607484626 6.704967699317004 0 0 0
301 0 8 -1.05 19.585134760804987 4.526757182576657 4.994143963801731 0 0 0
302 0 8 -1.05 23.729243288586797 4.433222349562181 5.696062839029247 0 0 0
304 0 8 -1.05 21.812796122537662 2.196865542283351 1.9042962464219308 0 0 0
305 0 8 -1.05 23.866382171195504 2.3075109025150287 7.560337561913533 0 0 0
306 0 8 -1.05 20.28603631136165 6.556375407647134 3.4516259847554913 0 0 0
307 0 8 -1.05 21.89661062986924 0.3894062740261304 3.6611279129326406 0 0 0
308 0 8 -1.05 21.645696280579905 0.49311217171234323 7.488055809603233 0 0 0
309 0 8 -1.05 17.229042651942553 2.609012923448555 5.230354104389493 0 0 0
310 0 8 -1.05 17.811533625900427 6.451547872486349 4.753773366286948 0 0 0
311 0 8 -1.05 19.78037894386275 4.538389509619876 1.8727333580033858 0 0 0
313 0 8 -1.05 19.660292166953983 2.2035544756343457 3.532421648372734 0 0 0
314 0 8 -1.05 23.80286965287234 6.741008332979119 7.44851943364925 0 0 0
371 0 8 -1.05 23.801934474877964 4.594346860855561 1.531922381591837 0 0 0
372 0 8 -1.05 21.69071491301473 6.500827717441686 1.2338429506435977 0 0 0
373 0 8 -1.05 18.055339747385382 2.364242124341184 1.2235964242913888 0 0 0
374 0 8 -1.05 20.011020098491283 0.20493293396340723 1.6151595693345073 0 0 0
646 0 7 1.575 18.923078909304614 9.521012935219096 2.2556681416249673 0 0 0
648 0 7 1.575 22.893058903381004 9.698618848817885 6.518835061362883 0 0 0
651 0 7 1.575 24.9483198383005 11.927200659531012 4.590194353451788 0 0 0
653 0 7 1.575 20.473236456889058 11.88215041727018 8.099243574726401 0 0 0
654 0 7 1.575 21.78811669441383 8.947117545922532 1.2992033574434105 0 0 0
655 0 6 1.05 19.117717830593506 11.160758492730368 5.091549805595117 0 0 0
662 0 7 1.575 21.502671955753804 10.411359098663949 3.840472549660447 0 0 0
664 0 6 1.05 19.740178741624106 9.146364631632833 6.986890713759699 0 0 0
665 0 7 1.575 23.747809239768102 8.567691984212978 3.3988523576553136 0 0 0
667 0 7 1.575 22.93558763199249 11.981037797007135 2.312791522945159 0 0 0
669 0 7 1.575 22.204092797574667 12.492565068454901 5.4509036870734615 0 0 0
671 0 8 -1.05 23.37509369754007 8.367351971469457 1.5792308031545088 0 0 0
672 0 8 -1.05 22.06193611711869 10.761901091152978 5.393577537666439 0 0 0
677 0 8 -1.05 19.6027741236866 10.934495675020099 6.9145430127699665 0 0 0
682 0 8 -1.05 23.886405736461416 8.662879478965653 5.505793700939718 0 0 0
683 0 8 -1.05 19.727757588779717 8.508058210589004 5.319789012360926 0 0 0
685 0 8 -1.05 23.917405374105957 10.994755051973943 3.534587810267989 0 0 0
686 0 8 -1.05 17.591369939224677 8.881773679155247 3.1643064960720984 0 0 0
687 0 8 -1.05 17.335446337169447 8.75650539420939 6.598415093831712 0 0 0
691 0 8 -1.05 21.920817159912215 10.586167862170946 1.9197104721661828 0 0 0
692 0 8 -1.05 23.874296572007136 10.695836358620696 7.533714483608344 0 0 0
694 0 8 -1.05 21.953156533362844 8.698359215491253 3.6617603352715387 0 0 0
695 0 8 -1.05 21.615693455076954 8.82755005007383 7.435002356862289 0 0 0
696 0 8 -1.05 17.32459164830129 11.089689274601186 5.086360404591285 0 0 0
700 0 8 -1.05 19.746583453832056 10.498263866827466 3.507254530067667 0 0 0
760 0 8 -1.05 18.194818188647723 10.727047705545615 1.2289764679158168 0 0 0
761 0 8 -1.05 20.13904939150514 8.545058964425538 1.5108549840372543 0 0 0
661 0 7 1.575 18.334145633882528 12.359722513525343 1.515555993208401 0 0 0
680 0 8 -1.05 21.9281787728499 12.649441821701732 3.643248193916652 0 0 0
284 0 8 -1.05 23.557150564585626 0.18119712009846028 1.7588866259117077 0 0 0
81 0 8 -1.05 2.9639422617378997 0.4266530760864949 16.04899363534864 0 0 0
25 0 8 -1.05 2.606296614314024 0.3232008407331092 9.273894271197847 0 0 0
33 0 8 -1.05 0.41972913059612116 2.2798193141924674 9.322281352458692 0 0 0
45 0 8 -1.05 4.673596449146513 6.513635207211603 8.85905789043478 0 0 0
54 0 8 -1.05 6.641014649649535 4.551261190217967 8.632215268055404 0 0 0
57 0 7 1.575 1.5083466572956077 1.3032992459383343 10.176244424301958 0 0 0
60 0 7 1.575 3.8387243689806874 7.843547355345459 11.901821294531281 0 0 0
62 0 7 1.575 8.012470298569268 3.4251251561094893 11.45154772795968 0 0 0
63 0 7 1.575 5.831956538364773 5.580307148544569 9.740215440727686 0 0 0
65 0 7 1.575 4.47863812919904 0.3991743493802725 9.078496735456419 0 0 0
69 0 6 1.05 2.1376625795149757 4.091953240465382 10.982886031293637 0 0 0
70 0 7 1.575 1.0143521013915406 7.173210268912169 11.07589393536971 0 0 0
73 0 7 1.575 5.115150494003384 2.80000986779564 10.833280545474018 0 0 0
76 0 6 1.05 6.8868436727647655 8.485128668729141 10.532418991139208 0 0 0
78 0 6 1.05 6.684991042156437 2.552891129953109 8.750256852021437 0 0 0
79 0 6 1.05 2.9234782595903592 6.3189383689419465 9.159701967988475 0 0 0
82 0 8 -1.05 6.569383693362845 0.20098196266258786 8.848397705583729 0 0 0
86 0 8 -1.05 0.3431579276316152 4.418607171381267 11.005823249150831 0 0 0
87 0 8 -1.05 6.951755349728681 6.640046452429638 10.650268488851584 0 0 0
90 0 8 -1.05 0.3086909547446086 6.693670303086893 9.489270811874015 0 0 0
91 0 8 -1.05 4.96109404056852 4.559601905407862 10.942129555870112 0 0 0
96 0 8 -1.05 6.8316618500503745 2.5086928439698704 10.598095114597838 0 0 0
97 0 8 -1.05 0.5625380975154834 0.2739484666146586 11.21461863762977 0 0 0
102 0 8 -1.05 4.5467662307374646 2.316743689790563 9.224090374359504 0 0 0
104 0 8 -1.05 2.7128613576365326 6.920591094825604 10.93758858747429 0 0 0
105 0 8 -1.05 4.731672009521587 0.09290844240514488 10.787661915430538 0 0 0
109 0 8 -1.05 2.6699892813828474 4.4450546337585815 9.310851852447078 0 0 0
111 0 8 -1.05 2.476286686433085 2.2982756014387826 11.252340959902872 0 0 0
93 0 8 -1.05 7.027115025211145 0.08200907560034225 12.422316759603934 0 0 0
108 0 8 -1.05 0.6419378441450017 6.555143164442035 12.65264634881817 0 0 0
83 0 8 -1.05 4.861752406297719 2.1725536423519043 12.400006319654034 0 0 0
99 0 8 -1.05 2.7806178718661294 4.778059940343922 12.604364412173997 0 0 0
80 0 7 1.575 4.450519031418336 5.024732321160421 12.588529509115968 0 0 0
66 0 7 1.575 3.1396924810981552 1.9358870704399476 12.792365166790823 0 0 0
412 0 8 -1.05 2.708838800048763 8.930906185639437 9.123683798846912 0 0 0
420 0 8 -1.05 0.45416925643865436 10.764979744805125 9.158616297100853 0 0 0
444 0 7 1.575 1.6137836922968525 9.923509652873124 10.093965499125195 0 0 0
449 0 7 1.575 8.034284772870073 12.08452887240272 11.326272070418113 0 0 0
452 0 7 1.575 4.506742739739484 8.891070613002436 8.98870301854339 0 0 0
460 0 7 1.575 5.162259977767701 11.188944373899544 10.682170791014963 0 0 0
465 0 6 1.05 6.6023987056000255 11.207875679054007 8.575806642928605 0 0 0
469 0 8 -1.05 6.617310824880206 8.700456021753297 8.709326066940621 0 0 0
483 0 8 -1.05 6.90979152729884 11.122232601142219 10.435921477565172 0 0 0
484 0 8 -1.05 0.7342722996280496 8.8592863334884 11.192390363068542 0 0 0
489 0 8 -1.05 4.696875567269472 10.81424175894792 9.021712154648533 0 0 0
492 0 8 -1.05 4.796465775536493 8.684441364705709 10.727378854976154 0 0 0
498 0 8 -1.05 2.6006957745678876 10.85746984814954 11.109580817076019 0 0 0
480 0 8 -1.05 7.075985549449277 8.766997697046785 12.350928309323987 0 0 0
470 0 8 -1.05 4.911653151951387 10.842153329194128 12.395566154371737 0 0 0
453 0 7 1.575 3.1909585717440048 10.519013178854115 12.759666052935334 0 0 0
58 0 7 1.575 8.194766990973212 7.774311275200299 15.38577507380889 0 0 0
59 0 7 1.575 6.102367943552479 1.2562665372198012 13.286835542669504 0 0 0
61 0 7 1.575 1.659546738774367 5.636780276730279 13.720306824746208 0 0 0
64 0 7 1.575 4.264762165871831 3.444646369215075 15.267845239148755 0 0 0
68 0 7 1.575 6.886972871112443 4.385497830806905 14.242249617203136 0 0 0
71 0 7 1.575 1.1186558218041531 2.8960221862701223 14.693459423262544 0 0 0
74 0 13 1.575 5.381086477583429 7.137134714858507 14.411888279893532 0 0 0
75 0 7 1.575 2.0309661477009455 8.327883170163226 14.669359111945482 0 0 0
84 0 8 -1.05 4.72958559967044 6.751336317297043 12.891151092254923 0 0 0
85 0 8 -1.05 0.8666157014069208 4.562638338231219 14.911354396586455 0 0 0
88 0 8 -1.05 2.8664086277921297 2.671453880037688 14.288761435963586 0 0 0
92 0 8 -1.05 5.125863176941133 4.362788784821585 14.08702906575727 0 0 0
100 0 8 -1.05 7.154143164305467 4.556267683598901 12.53694647239142 0 0 0
95 0 8 -1.05 2.588147962304588 6.707628328773475 14.73837976529394 0 0 0
123 0 7 1.575 7.214860109784925 2.1566188434625126 16.067579229236966 0 0 0
122 0 13 1.575 3.330227660889061 6.344616932602568 16.45543992174843 0 0 0
101 1 11 -1.05 4.9326132370427676 7.0674441484623065 16.205399196703024 0 0 0
103 0 8 -1.05 7.153602826385858 2.352760500500727 14.16703155572362 0 0 0
106 0 8 -1.05 5.20102717697127 0.20383629263736497 14.404831446130853 0 0 0
107 0 8 -1.05 0.37297790227358346 2.5115330616398626 13.162408855094524 0 0 0
110 0 8 -1.05 7.204192123706509 4.33724768130196 15.90980773961165 0 0 0
112 0 8 -1.05 7.034118265224342 6.707138537584963 14.275781043682032 0 0 0
117 0 8 -1.05 3.623014415839174 4.648245664697313 16.19124790394558 0 0 0
118 0 8 -1.05 5.261566094460467 2.2342917653823298 15.980589981605911 0 0 0
120 0 8 -1.05 7.190283853441535 0.35076965539588695 16.255139210830638 0 0 0
94 0 8 -1.05 2.803758985100223 0.1841474433615401 13.087533932164686 0 0 0
67 0 6 1.05 7.307785580418309 6.436812119116694 12.498401492153695 0 0 0
446 0 7 1.575 6.204189846734829 9.873950136908318 13.299835817090731 0 0 0
451 0 7 1.575 4.245161359293357 12.039499652952966 15.333908451773285 0 0 0
458 0 7 1.575 1.1749897775182199 11.402551170657983 14.682317282192425 0 0 0
468 0 8 -1.05 2.9783946928451623 8.953482317061932 15.986703703363792 0 0 0
475 0 8 -1.05 3.003195888269838 11.225515039574054 14.342989541034454 0 0 0
510 0 7 1.575 7.209178464897404 10.763061807776307 15.975933602574605 0 0 0
490 0 8 -1.05 7.242773394520787 10.925860246192899 14.180854562847918 0 0 0
493 0 8 -1.05 5.2446296959024705 8.877164561719818 14.3201373276941 0 0 0
494 0 8 -1.05 0.47203342639742424 10.997573581983257 13.085210427237755 0 0 0
505 0 8 -1.05 5.328765186695778 10.822277060836491 16.008418273226393 0 0 0
507 0 8 -1.05 7.152100216626391 8.834769353201581 16.202917924562083 0 0 0
481 0 8 -1.05 2.8602992130707436 8.835725753639151 13.03731467026567 0 0 0
121 0 13 1.575 4.617004975338764 0.6542290453363508 15.967454001239398 0 0 0
508 0 13 1.575 4.630877439471475 9.22271990990394 15.943549124888637 0 0 0
456 0 6 1.05 2.2483587576269337 12.667511790348946 10.92791900069519 0 0 0
485 0 8 -1.05 0.3519543741550088 8.438980145983736 14.433592302749227 0 0 0
89 0 8 -1.05 0.22246910774896217 2.188909804613794 15.929901960604392 0 0 0
476 0 8 -1.05 0.22958281841355488 10.78229672808185 15.938674931374571 0 0 0
979 0 6 1.05 15.052269404526436 0.5035367407233506 10.362078561316391 0 1 0
253 0 7 1.575 8.92768999572277 4.393403724341358 16.35219197122499 0 0 0
77 0 6 1.05 8.958000793419002 0.05280119653435385 12.284129525854118 0 0 0
464 0 6 1.05 8.992844785984692 8.665650647369626 12.238404320557299 0 0 0
248 0 8 -1.05 9.263517925050715 6.512479655858647 16.002243915278175 0 0 0
218 0 8 -1.05 8.9667676312913 2.595052321726458 15.925766831548357 0 0 0
605 0 8 -1.05 9.034190419498229 11.109522950262361 15.973374009089799 0 0 0
201 0 7 1.575 8.90777038475265 4.2614324453635755 8.550371376841694 0 0 0
167 0 8 -1.05 10.715803372393307 0.045238071927040456 5.010048808499979 0 0 0
186 0 7 1.575 9.547903520090841 1.1918552998246312 9.344749401618131 0 0 0
189 0 7 1.575 11.808385942181163 7.763351707311763 11.094723221695885 0 0 0
191 0 7 1.575 15.845152157033091 3.436327795437269 11.344212568211105 0 0 0
192 0 7 1.575 14.165205323049092 5.6016041246754 9.416433887603116 0 0 0
198 0 6 1.05 11.135831105406996 4.850246284203687 10.232132898775921 0 0 0
199 0 7 1.575 8.83613380257448 6.75470581835924 10.35825177516007 0 0 0
202 0 7 1.575 12.517504161183194 1.8500094310031818 10.124850983061911 0 0 0
205 0 6 1.05 15.123749595084965 9.03368807090109 10.306483952493673 0 0 0
207 0 6 1.05 14.719791523215928 2.7718246362671084 8.43930647824739 0 0 0
551 0 8 -1.05 13.041602884966432 12.5588704415598 2.9428794758014987 0 0 0
215 0 8 -1.05 8.843235407112184 4.4528672927952275 10.288593050111565 0 0 0
216 0 8 -1.05 14.97336991031258 6.671109324563306 10.456444451043364 0 0 0
219 0 8 -1.05 8.598642137709628 6.6723539959634115 8.60266705855862 0 0 0
220 0 8 -1.05 12.928719082287294 4.715606676913449 10.208262870764276 0 0 0
225 0 8 -1.05 15.022394955812604 2.301363246986272 10.226591531173344 0 0 0
387 5 12 0.475 21.34639904522237 6.919500691291247 16.971342528416027 0 0 0
231 0 8 -1.05 12.86848943285808 2.3695970169294354 8.521342325089392 0 0 0