ITEM: TIMESTEP
0
ITEM: NUMBER OF ATOMS
1161
ITEM: BOX BOUNDS pp pp ff
0.0000000000000000e+00 2.5440000000000001e+01
0.0000000000000000e+00 2.5440000000000001e+01
0.0000000000000000e+00 1.0000000000000000e+02
ITEM: ATOMS id type q x y z
1 7 1.575 1.35261 1.28613 2.21532
2 7 1.575 7.78494 7.68947 7.8526
3 7 1.575 5.59945 1.20481 6.03603
4 7 1.575 3.51672 7.66126 4.40323
5 7 1.575 1.35221 5.57003 5.97399
6 7 1.575 7.71393 3.44897 4.20439
7 7 1.575 5.95525 6.59403 1.6362
8 7 1.575 3.447 3.38494 7.88904
9 7 1.575 4.42275 0.373576 1.52313
10 6 1.05 1.97511 2.72376 5.13217
11 6 1.05 6.47084 6.9626 4.99173
12 6 1.05 6.96306 4.93539 6.84619
13 7 1.575 2.93425 4.82485 3.27162
14 7 1.575 8.42693 6.21316 3.1614
15 7 1.575 0.00848227 2.04536 6.89496
16 7 1.575 0.784831 4.08597 1.53497
17 7 1.575 4.00486 2.00738 3.49372
18 7 1.575 4.28966 6.28787 6.92158
19 6 1.05 2.24539 0.514605 6.9413
20 7 1.575 6.96642 0.710439 3.12207
21 6 1.05 0.515876 8.39152 5.03111
22 7 1.575 5.67465 3.51648 2.02585
23 7 1.575 2.48144 6.94717 1.58622
24 7 1.575 4.89277 4.07065 5.12724
25 8 -1.05 2.4976 0.490269 8.73238
26 8 -1.05 6.26799 0.0761625 1.65145
27 8 -1.05 4.60359 2.2995 5.07182
28 8 -1.05 4.58541 6.60695 5.23026
29 8 -1.05 0.304058 4.69498 7.02041
30 8 -1.05 0.103868 4.46371 3.09134
31 8 -1.05 6.76612 6.60537 3.25007
32 8 -1.05 2.42862 2.41317 6.85448
33 8 -1.05 0.310815 2.27536 8.62779
34 8 -1.05 0.703935 6.53875 1.62885
35 8 -1.05 4.58374 4.17763 3.38242
36 8 -1.05 4.37887 4.4151 6.75719
37 8 -1.05 6.54856 0.33082 4.84318
38 8 -1.05 2.35388 0.0921427 5.20919
39 8 -1.05 2.49096 6.38666 6.96744
40 8 -1.05 6.71184 2.52045 3.11377
41 8 -1.05 0.20605 0.413498 3.21814
42 8 -1.05 0.277769 0.27523 6.86072
43 8 -1.05 2.31277 4.53205 4.89089
44 8 -1.05 6.59846 4.40422 5.14195
45 8 -1.05 4.54585 6.38874 8.64688
46 8 -1.05 4.57593 2.16073 1.6929
47 8 -1.05 6.67813 2.10461 6.9657
48 8 -1.05 2.82948 6.53131 3.26763
49 8 -1.05 4.32246 0.275571 3.37671
50 8 -1.05 4.58703 0.295517 7.08047
51 8 -1.05 0.190357 2.50981 5.26885
52 8 -1.05 0.424003 6.54232 4.85631
53 8 -1.05 2.42204 4.51813 1.68757
54 8 -1.05 6.75677 4.61034 8.65588
55 8 -1.05 2.29221 2.178 3.39971
56 8 -1.05 6.81903 6.71399 6.81756
57 7 1.575 1.32019 1.34342 9.73034
58 7 1.575 7.8633 7.58926 15.2585
59 7 1.575 5.62461 1.29459 13.2803
60 7 1.575 3.47519 7.63641 11.5209
61 7 1.575 1.38176 5.55781 13.2297
62 7 1.575 7.75281 3.53439 11.6055
63 7 1.575 5.63891 5.51079 9.66298
64 7 1.575 3.39158 3.51914 15.2899
65 7 1.575 4.25505 0.578004 8.78426
66 7 1.575 2.85383 1.99792 12.4224
67 6 1.05 6.98384 6.34775 12.5169
68 7 1.575 6.2255 4.12008 14.3987
69 6 1.05 2.08608 4.13029 10.6384
70 7 1.575 0.630435 6.9305 10.6094
71 7 1.575 0.697114 2.68025 14.2384
72 7 1.575 0.0454906 4.74517 8.76162
73 7 1.575 4.95232 2.83725 10.5573
74 13 1.575 4.96468 7.10601 14.4117
75 7 1.575 2.10784 8.36865 14.2597
76 6 1.05 6.31992 8.32184 10.5974
77 6 1.05 8.44694 0.49909 12.4381
78 6 1.05 6.90107 2.04596 8.88582
79 6 1.05 2.73548 6.27739 8.86612
80 7 1.575 4.2894 4.90295 12.4447
81 8 -1.05 2.41532 0.149388 15.9282
82 8 -1.05 6.81173 0.222121 8.90063
83 8 -1.05 4.60302 2.26748 12.2035
84 8 -1.05 4.46886 6.62838 12.6093
85 8 -1.05 0.466908 4.44469 14.1587
86 8 -1.05 0.2938 4.35495 10.4634
87 8 -1.05 6.51385 6.50676 10.7066
88 8 -1.05 2.45374 2.48226 14.0511
89 8 -1.05 0.210559 2.51086 15.8868
90 8 -1.05 0.181631 6.5838 8.91615
91 8 -1.05 4.65718 4.55693 10.7183
92 8 -1.05 4.49578 4.36716 14.1809
93 8 -1.05 6.66566 0.298507 12.3201
94 8 -1.05 2.55032 0.272702 12.5595
95 8 -1.05 2.27459 6.62558 14.1966
96 8 -1.05 6.67164 2.60612 10.5457
97 8 -1.05 0.460398 0.182419 10.68
98 8 -1.05 0.376175 0.153017 14.1448
99 8 -1.05 2.56042 4.61772 12.3197
100 8 -1.05 6.61937 4.43999 12.6708
101 11 -1.05 4.33878 6.62878 15.945
102 8 -1.05 4.49731 2.37782 8.96547
103 8 -1.05 6.35499 2.36827 14.4542
104 8 -1.05 2.3691 6.74797 10.5142
105 8 -1.05 4.47856 0.114274 10.4853
106 8 -1.05 4.64102 0.26814 14.1991
107 8 -1.05 0.125449 2.37976 12.6154
108 8 -1.05 0.26153 6.43582 12.2496
109 8 -1.05 2.5143 4.42332 8.89476
110 8 -1.05 6.98824 4.40344 15.9406
111 8 -1.05 2.28672 2.32835 10.7724
112 8 -1.05 6.66959 6.66286 14.3101
113 8 -1.05 6.25699 4.92688 1.28997
114 8 -1.05 4.29743 7.02938 1.13937
115 8 -1.05 0.542579 2.44527 1.32008
116 8 -1.05 2.45183 0.216668 1.44348
117 8 -1.05 2.28011 4.61945 16.0537
118 8 -1.05 4.09387 2.40844 16.3858
119 8 -1.05 0.400724 6.42556 16.0345
120 8 -1.05 6.98495 0.262084 16.1785
121 13 1.575 3.42418 0.972727 16.9549
122 13 1.575 2.43456 6.37595 16.2196
123 7 1.575 7.05713 1.91631 15.9967
124 7 1.575 0.221726 4.68453 15.9655
125 9 0.52 1.38053 5.55212 18.7221
126 2 0 1.27822 5.31343 19.7976
127 10 -0.76 2.21152 6.46928 18.4006
128 10 -0.76 0.625383 4.98667 17.8996
129 12 0.475 4.88961 6.19093 16.6993
130 7 1.575 9.83261 1.28613 2.21532
131 7 1.575 16.2649 7.68947 7.8526
132 7 1.575 14.0795 1.20481 6.03603
133 7 1.575 11.9967 7.66126 4.40323
134 7 1.575 9.83221 5.57003 5.97399
135 7 1.575 16.1939 3.44897 4.20439
136 7 1.575 14.4353 6.59403 1.6362
137 7 1.575 11.927 3.38494 7.88904
138 7 1.575 12.9027 0.373576 1.52313
139 6 1.05 10.4551 2.72376 5.13217
140 6 1.05 14.9508 6.9626 4.99173
141 6 1.05 15.4431 4.93539 6.84619
142 7 1.575 11.4143 4.82485 3.27162
143 7 1.575 16.9069 6.21316 3.1614
144 7 1.575 8.48848 2.04536 6.89496
145 7 1.575 9.26483 4.08597 1.53497
146 7 1.575 12.4849 2.00738 3.49372
147 7 1.575 12.7697 6.28787 6.92158
148 6 1.05 10.7254 0.514605 6.9413
149 7 1.575 15.4464 0.710439 3.12207
150 6 1.05 8.99588 8.39152 5.03111
151 7 1.575 14.1546 3.51648 2.02585
152 7 1.575 10.9614 6.94717 1.58622
153 7 1.575 13.3728 4.07065 5.12724
154 8 -1.05 10.9776 0.490269 8.73238
155 8 -1.05 14.748 0.0761625 1.65145
156 8 -1.05 13.0836 2.2995 5.07182
157 8 -1.05 13.0654 6.60695 5.23026
158 8 -1.05 8.78406 4.69498 7.02041
159 8 -1.05 8.58387 4.46371 3.09134
160 8 -1.05 15.2461 6.60537 3.25007
161 8 -1.05 10.9086 2.41317 6.85448
162 8 -1.05 8.79082 2.27536 8.62779
163 8 -1.05 9.18394 6.53875 1.62885
164 8 -1.05 13.0637 4.17763 3.38242
165 8 -1.05 12.8589 4.4151 6.75719
166 8 -1.05 15.0286 0.33082 4.84318
167 8 -1.05 10.8339 0.0921427 5.20919
168 8 -1.05 10.971 6.38666 6.96744
169 8 -1.05 15.1918 2.52045 3.11377
170 8 -1.05 8.68605 0.413498 3.21814
171 8 -1.05 8.75777 0.27523 6.86072
172 8 -1.05 10.7928 4.53205 4.89089
173 8 -1.05 15.0785 4.40422 5.14195
174 8 -1.05 13.0259 6.38874 8.64688
175 8 -1.05 13.0559 2.16073 1.6929
176 8 -1.05 15.1581 2.10461 6.9657
177 8 -1.05 11.3095 6.53131 3.26763
178 8 -1.05 12.8025 0.275571 3.37671
179 8 -1.05 13.067 0.295517 7.08047
180 8 -1.05 8.67036 2.50981 5.26885
181 8 -1.05 8.904 6.54232 4.85631
182 8 -1.05 10.902 4.51813 1.68757
183 8 -1.05 15.2368 4.61034 8.65588
184 8 -1.05 10.7722 2.178 3.39971
185 8 -1.05 15.299 6.71399 6.81756
186 7 1.575 9.80019 1.34342 9.73034
187 7 1.575 16.3433 7.58926 15.2585
188 7 1.575 14.1046 1.29459 13.2803
189 7 1.575 11.9552 7.63641 11.5209
190 7 1.575 9.86176 5.55781 13.2297
191 7 1.575 16.2328 3.53439 11.6055
192 7 1.575 14.1189 5.51079 9.66298
193 7 1.575 11.8716 3.51914 15.2899
194 7 1.575 12.7351 0.578004 8.78426
195 7 1.575 11.3338 1.99792 12.4224
196 6 1.05 15.4638 6.34775 12.5169
197 7 1.575 14.7055 4.12008 14.3987
198 6 1.05 10.5661 4.13029 10.6384
199 7 1.575 9.11044 6.9305 10.6094
200 7 1.575 9.17711 2.68025 14.2384
201 7 1.575 8.52549 4.74517 8.76162
202 7 1.575 13.4323 2.83725 10.5573
203 13 1.575 13.4447 7.10601 14.4117
204 7 1.575 10.5878 8.36865 14.2597
205 6 1.05 14.7999 8.32184 10.5974
206 6 1.05 16.9269 0.49909 12.4381
207 6 1.05 15.3811 2.04596 8.88582
208 6 1.05 11.2155 6.27739 8.86612
209 7 1.575 12.7694 4.90295 12.4447
210 8 -1.05 10.8953 0.149388 15.9282
211 8 -1.05 15.2917 0.222121 8.90063
212 8 -1.05 13.083 2.26748 12.2035
213 8 -1.05 12.9489 6.62838 12.6093
214 8 -1.05 8.94691 4.44469 14.1587
215 8 -1.05 8.7738 4.35495 10.4634
216 8 -1.05 14.9939 6.50676 10.7066
217 8 -1.05 10.9337 2.48226 14.0511
218 8 -1.05 8.69056 2.51086 15.8868
219 8 -1.05 8.66163 6.5838 8.91615
220 8 -1.05 13.1372 4.55693 10.7183
221 8 -1.05 12.9758 4.36716 14.1809
222 8 -1.05 15.1457 0.298507 12.3201
223 8 -1.05 11.0303 0.272702 12.5595
224 8 -1.05 10.7546 6.62558 14.1966
225 8 -1.05 15.1516 2.60612 10.5457
226 8 -1.05 8.9404 0.182419 10.68
227 8 -1.05 8.85618 0.153017 14.1448
228 8 -1.05 11.0404 4.61772 12.3197
229 8 -1.05 15.0994 4.43999 12.6708
230 11 -1.05 12.8188 6.62878 15.945
231 8 -1.05 12.9773 2.37782 8.96547
232 8 -1.05 14.835 2.36827 14.4542
233 8 -1.05 10.8491 6.74797 10.5142
234 8 -1.05 12.9586 0.114274 10.4853
235 8 -1.05 13.121 0.26814 14.1991
236 8 -1.05 8.60545 2.37976 12.6154
237 8 -1.05 8.74153 6.43582 12.2496
238 8 -1.05 10.9943 4.42332 8.89476
239 8 -1.05 15.4682 4.40344 15.9406
240 8 -1.05 10.7667 2.32835 10.7724
241 8 -1.05 15.1496 6.66286 14.3101
242 8 -1.05 14.737 4.92688 1.28997
243 8 -1.05 12.7774 7.02938 1.13937
244 8 -1.05 9.02258 2.44527 1.32008
245 8 -1.05 10.9318 0.216668 1.44348
246 8 -1.05 10.7601 4.61945 16.0537
247 8 -1.05 12.5739 2.40844 16.3858
248 8 -1.05 8.88072 6.42556 16.0345
249 8 -1.05 15.465 0.262084 16.1785
250 13 1.575 11.9042 0.972727 16.9549
251 13 1.575 10.9146 6.37595 16.2196
252 7 1.575 15.5371 1.91631 15.9967
253 7 1.575 8.70173 4.68453 15.9655
254 9 0.52 9.86053 5.55212 18.7221
255 2 0 9.75822 5.31343 19.7976
256 10 -0.76 10.6915 6.46928 18.4006
257 10 -0.76 9.10538 4.98667 17.8996
258 12 0.475 13.3696 6.19093 16.6993
259 7 1.575 18.3126 1.28613 2.21532
260 7 1.575 24.7449 7.68947 7.8526
261 7 1.575 22.5595 1.20481 6.03603
262 7 1.575 20.4767 7.66126 4.40323
263 7 1.575 18.3122 5.57003 5.97399
264 7 1.575 24.6739 3.44897 4.20439
265 7 1.575 22.9153 6.59403 1.6362
266 7 1.575 20.407 3.38494 7.88904
267 7 1.575 21.3827 0.373576 1.52313
268 6 1.05 18.9351 2.72376 5.13217
269 6 1.05 23.4308 6.9626 4.99173
270 6 1.05 23.9231 4.93539 6.84619
271 7 1.575 19.8943 4.82485 3.27162
272 7 1.575 25.3869 6.21316 3.1614
273 7 1.575 16.9685 2.04536 6.89496
274 7 1.575 17.7448 4.08597 1.53497
275 7 1.575 20.9649 2.00738 3.49372
276 7 1.575 21.2497 6.28787 6.92158
277 6 1.05 19.2054 0.514605 6.9413
278 7 1.575 23.9264 0.710439 3.12207
279 6 1.05 17.4759 8.39152 5.03111
280 7 1.575 22.6346 3.51648 2.02585
281 7 1.575 19.4414 6.94717 1.58622
282 7 1.575 21.8528 4.07065 5.12724
283 8 -1.05 19.4576 0.490269 8.73238
284 8 -1.05 23.228 0.0761625 1.65145
285 8 -1.05 21.5636 2.2995 5.07182
286 8 -1.05 21.5454 6.60695 5.23026
287 8 -1.05 17.2641 4.69498 7.02041
288 8 -1.05 17.0639 4.46371 3.09134
289 8 -1.05 23.7261 6.60537 3.25007
290 8 -1.05 19.3886 2.41317 6.85448
291 8 -1.05 17.2708 2.27536 8.62779
292 8 -1.05 17.6639 6.53875 1.62885
293 8 -1.05 21.5437 4.17763 3.38242
294 8 -1.05 21.3389 4.4151 6.75719
295 8 -1.05 23.5086 0.33082 4.84318
296 8 -1.05 19.3139 0.0921427 5.20919
297 8 -1.05 19.451 6.38666 6.96744
298 8 -1.05 23.6718 2.52045 3.11377
299 8 -1.05 17.166 0.413498 3.21814
300 8 -1.05 17.2378 0.27523 6.86072
301 8 -1.05 19.2728 4.53205 4.89089
302 8 -1.05 23.5585 4.40422 5.14195
303 8 -1.05 21.5059 6.38874 8.64688
304 8 -1.05 21.5359 2.16073 1.6929
305 8 -1.05 23.6381 2.10461 6.9657
306 8 -1.05 19.7895 6.53131 3.26763
307 8 -1.05 21.2825 0.275571 3.37671
308 8 -1.05 21.547 0.295517 7.08047
309 8 -1.05 17.1504 2.50981 5.26885
310 8 -1.05 17.384 6.54232 4.85631
311 8 -1.05 19.382 4.51813 1.68757
312 8 -1.05 23.7168 4.61034 8.65588
313 8 -1.05 19.2522 2.178 3.39971
314 8 -1.05 23.779 6.71399 6.81756
315 7 1.575 18.2802 1.34342 9.73034
316 7 1.575 24.8233 7.58926 15.2585
317 7 1.575 22.5846 1.29459 13.2803
318 7 1.575 20.4352 7.63641 11.5209
319 7 1.575 18.3418 5.55781 13.2297
320 7 1.575 24.7128 3.53439 11.6055
321 7 1.575 22.5989 5.51079 9.66298
322 7 1.575 20.3516 3.51914 15.2899
323 7 1.575 21.2151 0.578004 8.78426
324 7 1.575 19.8138 1.99792 12.4224
325 6 1.05 23.9438 6.34775 12.5169
326 7 1.575 23.1855 4.12008 14.3987
327 6 1.05 19.0461 4.13029 10.6384
328 7 1.575 17.5904 6.9305 10.6094
329 7 1.575 17.6571 2.68025 14.2384
330 7 1.575 17.0055 4.74517 8.76162
331 7 1.575 21.9123 2.83725 10.5573
332 13 1.575 21.9247 7.10601 14.4117
333 7 1.575 19.0678 8.36865 14.2597
334 6 1.05 23.2799 8.32184 10.5974
335 6 1.05 25.4069 0.49909 12.4381
336 6 1.05 23.8611 2.04596 8.88582
337 6 1.05 19.6955 6.27739 8.86612
338 7 1.575 21.2494 4.90295 12.4447
339 8 -1.05 19.3753 0.149388 15.9282
340 8 -1.05 23.7717 0.222121 8.90063
341 8 -1.05 21.563 2.26748 12.2035
342 8 -1.05 21.4289 6.62838 12.6093
343 8 -1.05 17.4269 4.44469 14.1587
344 8 -1.05 17.2538 4.35495 10.4634
345 8 -1.05 23.4739 6.50676 10.7066
346 8 -1.05 19.4137 2.48226 14.0511
347 8 -1.05 17.1706 2.51086 15.8868
348 8 -1.05 17.1416 6.5838 8.91615
349 8 -1.05 21.6172 4.55693 10.7183
350 8 -1.05 21.4558 4.36716 14.1809
351 8 -1.05 23.6257 0.298507 12.3201
352 8 -1.05 19.5103 0.272702 12.5595
353 8 -1.05 19.2346 6.62558 14.1966
354 8 -1.05 23.6316 2.60612 10.5457
355 8 -1.05 17.4204 0.182419 10.68
356 8 -1.05 17.3362 0.153017 14.1448
357 8 -1.05 19.5204 4.61772 12.3197
358 8 -1.05 23.5794 4.43999 12.6708
359 11 -1.05 21.2988 6.62878 15.945
360 8 -1.05 21.4573 2.37782 8.96547
361 8 -1.05 23.315 2.36827 14.4542
362 8 -1.05 19.3291 6.74797 10.5142
363 8 -1.05 21.4386 0.114274 10.4853
364 8 -1.05 21.601 0.26814 14.1991
365 8 -1.05 17.0854 2.37976 12.6154
366 8 -1.05 17.2215 6.43582 12.2496
367 8 -1.05 19.4743 4.42332 8.89476
368 8 -1.05 23.9482 4.40344 15.9406
369 8 -1.05 19.2467 2.32835 10.7724
370 8 -1.05 23.6296 6.66286 14.3101
371 8 -1.05 23.217 4.92688 1.28997
372 8 -1.05 21.2574 7.02938 1.13937
373 8 -1.05 17.5026 2.44527 1.32008
374 8 -1.05 19.4118 0.216668 1.44348
375 8 -1.05 19.2401 4.61945 16.0537
376 8 -1.05 21.0539 2.40844 16.3858
377 8 -1.05 17.3607 6.42556 16.0345
378 8 -1.05 23.945 0.262084 16.1785
379 13 1.575 20.3842 0.972727 16.9549
380 13 1.575 19.3946 6.37595 16.2196
381 7 1.575 24.0171 1.91631 15.9967
382 7 1.575 17.1817 4.68453 15.9655
383 9 0.52 18.3405 5.55212 18.7221
384 2 0 18.2382 5.31343 19.7976
385 10 -0.76 19.1715 6.46928 18.4006
386 10 -0.76 17.5854 4.98667 17.8996
387 12 0.475 21.8496 6.19093 16.6993
388 7 1.575 1.35261 9.76613 2.21532
389 7 1.575 7.78494 16.1695 7.8526
390 7 1.575 5.59945 9.68481 6.03603
391 7 1.575 3.51672 16.1413 4.40323
392 7 1.575 1.35221 14.05 5.97399
393 7 1.575 7.71393 11.929 4.20439
394 7 1.575 5.95525 15.074 1.6362
395 7 1.575 3.447 11.8649 7.88904
396 7 1.575 4.42275 8.85358 1.52313
397 6 1.05 1.97511 11.2038 5.13217
398 6 1.05 6.47084 15.4426 4.99173
399 6 1.05 6.96306 13.4154 6.84619
400 7 1.575 2.93425 13.3049 3.27162
401 7 1.575 8.42693 14.6932 3.1614
402 7 1.575 0.00848227 10.5254 6.89496
403 7 1.575 0.784831 12.566 1.53497
404 7 1.575 4.00486 10.4874 3.49372
405 7 1.575 4.28966 14.7679 6.92158
406 6 1.05 2.24539 8.99461 6.9413
407 7 1.575 6.96642 9.19044 3.12207
408 6 1.05 0.515876 16.8715 5.03111
409 7 1.575 5.67465 11.9965 2.02585
410 7 1.575 2.48144 15.4272 1.58622
411 7 1.575 4.89277 12.5507 5.12724
412 8 -1.05 2.4976 8.97027 8.73238
413 8 -1.05 6.26799 8.55616 1.65145
414 8 -1.05 4.60359 10.7795 5.07182
415 8 -1.05 4.58541 15.0869 5.23026
416 8 -1.05 0.304058 13.175 7.02041
417 8 -1.05 0.103868 12.9437 3.09134
418 8 -1.05 6.76612 15.0854 3.25007
419 8 -1.05 2.42862 10.8932 6.85448
420 8 -1.05 0.310815 10.7554 8.62779
421 8 -1.05 0.703935 15.0187 1.62885
422 8 -1.05 4.58374 12.6576 3.38242
423 8 -1.05 4.37887 12.8951 6.75719
424 8 -1.05 6.54856 8.81082 4.84318
425 8 -1.05 2.35388 8.57214 5.20919
426 8 -1.05 2.49096 14.8667 6.96744
427 8 -1.05 6.71184 11.0005 3.11377
428 8 -1.05 0.20605 8.8935 3.21814
429 8 -1.05 0.277769 8.75523 6.86072
430 8 -1.05 2.31277 13.012 4.89089
431 8 -1.05 6.59846 12.8842 5.14195
432 8 -1.05 4.54585 14.8687 8.64688
433 8 -1.05 4.57593 10.6407 1.6929
434 8 -1.05 6.67813 10.5846 6.9657
435 8 -1.05 2.82948 15.0113 3.26763
436 8 -1.05 4.32246 8.75557 3.37671
437 8 -1.05 4.58703 8.77552 7.08047
438 8 -1.05 0.190357 10.9898 5.26885
439 8 -1.05 0.424003 15.0223 4.85631
440 8 -1.05 2.42204 12.9981 1.68757
441 8 -1.05 6.75677 13.0903 8.65588
442 8 -1.05 2.29221 10.658 3.39971
443 8 -1.05 6.81903 15.194 6.81756
444 7 1.575 1.32019 9.82342 9.73034
445 7 1.575 7.8633 16.0693 15.2585
446 7 1.575 5.62461 9.77459 13.2803
447 7 1.575 3.47519 16.1164 11.5209
448 7 1.575 1.38176 14.0378 13.2297
449 7 1.575 7.75281 12.0144 11.6055
450 7 1.575 5.63891 13.9908 9.66298
451 7 1.575 3.39158 11.9991 15.2899
452 7 1.575 4.25505 9.058 8.78426
453 7 1.575 2.85383 10.4779 12.4224
454 6 1.05 6.98384 14.8278 12.5169
455 7 1.575 6.2255 12.6001 14.3987
456 6 1.05 2.08608 12.6103 10.6384
457 7 1.575 0.630435 15.4105 10.6094
458 7 1.575 0.697114 11.1603 14.2384
459 7 1.575 0.0454906 13.2252 8.76162
460 7 1.575 4.95232 11.3173 10.5573
461 13 1.575 4.96468 15.586 14.4117
462 7 1.575 2.10784 16.8487 14.2597
463 6 1.05 6.31992 16.8018 10.5974
464 6 1.05 8.44694 8.97909 12.4381
465 6 1.05 6.90107 10.526 8.88582
466 6 1.05 2.73548 14.7574 8.86612
467 7 1.575 4.2894 13.3829 12.4447
468 8 -1.05 2.41532 8.62939 15.9282
469 8 -1.05 6.81173 8.70212 8.90063
470 8 -1.05 4.60302 10.7475 12.2035
471 8 -1.05 4.46886 15.1084 12.6093
472 8 -1.05 0.466908 12.9247 14.1587
473 8 -1.05 0.2938 12.8349 10.4634
474 8 -1.05 6.51385 14.9868 10.7066
475 8 -1.05 2.45374 10.9623 14.0511
476 8 -1.05 0.210559 10.9909 15.8868
477 8 -1.05 0.181631 15.0638 8.91615
478 8 -1.05 4.65718 13.0369 10.7183
479 8 -1.05 4.49578 12.8472 14.1809
480 8 -1.05 6.66566 8.77851 12.3201
481 8 -1.05 2.55032 8.7527 12.5595
482 8 -1.05 2.27459 15.1056 14.1966
483 8 -1.05 6.67164 11.0861 10.5457
484 8 -1.05 0.460398 8.66242 10.68
485 8 -1.05 0.376175 8.63302 14.1448
486 8 -1.05 2.56042 13.0977 12.3197
487 8 -1.05 6.61937 12.92 12.6708
488 11 -1.05 4.33878 15.1088 15.945
489 8 -1.05 4.49731 10.8578 8.96547
490 8 -1.05 6.35499 10.8483 14.4542
491 8 -1.05 2.3691 15.228 10.5142
492 8 -1.05 4.47856 8.59427 10.4853
493 8 -1.05 4.64102 8.74814 14.1991
494 8 -1.05 0.125449 10.8598 12.6154
495 8 -1.05 0.26153 14.9158 12.2496
496 8 -1.05 2.5143 12.9033 8.89476
497 8 -1.05 6.98824 12.8834 15.9406
498 8 -1.05 2.28672 10.8083 10.7724
499 8 -1.05 6.66959 15.1429 14.3101
500 8 -1.05 6.25699 13.4069 1.28997
501 8 -1.05 4.29743 15.5094 1.13937
502 8 -1.05 0.542579 10.9253 1.32008
503 8 -1.05 2.45183 8.69667 1.44348
504 8 -1.05 2.28011 13.0995 16.0537
505 8 -1.05 4.09387 10.8884 16.3858
506 8 -1.05 0.400724 14.9056 16.0345
507 8 -1.05 6.98495 8.74208 16.1785
508 13 1.575 3.42418 9.45273 16.9549
509 13 1.575 2.43456 14.8559 16.2196
510 7 1.575 7.05713 10.3963 15.9967
511 7 1.575 0.221726 13.1645 15.9655
512 9 0.52 1.38053 14.0321 18.7221
513 2 0 1.27822 13.7934 19.7976
514 10 -0.76 2.21152 14.9493 18.4006
515 10 -0.76 0.625383 13.4667 17.8996
516 12 0.475 4.88961 14.6709 16.6993
517 7 1.575 9.83261 9.76613 2.21532
518 7 1.575 16.2649 16.1695 7.8526
519 7 1.575 14.0795 9.68481 6.03603
520 7 1.575 11.9967 16.1413 4.40323
521 7 1.575 9.83221 14.05 5.97399
522 7 1.575 16.1939 11.929 4.20439
523 7 1.575 14.4353 15.074 1.6362
524 7 1.575 11.927 11.8649 7.88904
525 7 1.575 12.9027 8.85358 1.52313
526 6 1.05 10.4551 11.2038 5.13217
527 6 1.05 14.9508 15.4426 4.99173
528 6 1.05 15.4431 13.4154 6.84619
529 7 1.575 11.4143 13.3049 3.27162
530 7 1.575 16.9069 14.6932 3.1614
531 7 1.575 8.48848 10.5254 6.89496
532 7 1.575 9.26483 12.566 1.53497
533 7 1.575 12.4849 10.4874 3.49372
534 7 1.575 12.7697 14.7679 6.92158
535 6 1.05 10.7254 8.99461 6.9413
536 7 1.575 15.4464 9.19044 3.12207
537 6 1.05 8.99588 16.8715 5.03111
538 7 1.575 14.1546 11.9965 2.02585
539 7 1.575 10.9614 15.4272 1.58622
540 7 1.575 13.3728 12.5507 5.12724
541 8 -1.05 10.9776 8.97027 8.73238
542 8 -1.05 14.748 8.55616 1.65145
543 8 -1.05 13.0836 10.7795 5.07182
544 8 -1.05 13.0654 15.0869 5.23026
545 8 -1.05 8.78406 13.175 7.02041
546 8 -1.05 8.58387 12.9437 3.09134
547 8 -1.05 15.2461 15.0854 3.25007
548 8 -1.05 10.9086 10.8932 6.85448
549 8 -1.05 8.79082 10.7554 8.62779
550 8 -1.05 9.18394 15.0187 1.62885
551 8 -1.05 13.0637 12.6576 3.38242
552 8 -1.05 12.8589 12.8951 6.75719
553 8 -1.05 15.0286 8.81082 4.84318
554 8 -1.05 10.8339 8.57214 5.20919
555 8 -1.05 10.971 14.8667 6.96744
556 8 -1.05 15.1918 11.0005 3.11377
557 8 -1.05 8.68605 8.8935 3.21814
558 8 -1.05 8.75777 8.75523 6.86072
559 8 -1.05 10.7928 13.012 4.89089
560 8 -1.05 15.0785 12.8842 5.14195
561 8 -1.05 13.0259 14.8687 8.64688
562 8 -1.05 13.0559 10.6407 1.6929
563 8 -1.05 15.1581 10.5846 6.9657
564 8 -1.05 11.3095 15.0113 3.26763
565 8 -1.05 12.8025 8.75557 3.37671
566 8 -1.05 13.067 8.77552 7.08047
567 8 -1.05 8.67036 10.9898 5.26885
568 8 -1.05 8.904 15.0223 4.85631
569 8 -1.05 10.902 12.9981 1.68757
570 8 -1.05 15.2368 13.0903 8.65588
571 8 -1.05 10.7722 10.658 3.39971
572 8 -1.05 15.299 15.194 6.81756
573 7 1.575 9.80019 9.82342 9.73034
574 7 1.575 16.3433 16.0693 15.2585
575 7 1.575 14.1046 9.77459 13.2803
576 7 1.575 11.9552 16.1164 11.5209
577 7 1.575 9.86176 14.0378 13.2297
578 7 1.575 16.2328 12.0144 11.6055
579 7 1.575 14.1189 13.9908 9.66298
580 7 1.575 11.8716 11.9991 15.2899
581 7 1.575 12.7351 9.058 8.78426
582 7 1.575 11.3338 10.4779 12.4224
583 6 1.05 15.4638 14.8278 12.5169
584 7 1.575 14.7055 12.6001 14.3987
585 6 1.05 10.5661 12.6103 10.6384
586 7 1.575 9.11044 15.4105 10.6094
587 7 1.575 9.17711 11.1603 14.2384
588 7 1.575 8.52549 13.2252 8.76162
589 7 1.575 13.4323 11.3173 10.5573
590 13 1.575 13.4447 15.586 14.4117
591 7 1.575 10.5878 16.8487 14.2597
592 6 1.05 14.7999 16.8018 10.5974
593 6 1.05 16.9269 8.97909 12.4381
594 6 1.05 15.3811 10.526 8.88582
595 6 1.05 11.2155 14.7574 8.86612
596 7 1.575 12.7694 13.3829 12.4447
597 8 -1.05 10.8953 8.62939 15.9282
598 8 -1.05 15.2917 8.70212 8.90063
599 8 -1.05 13.083 10.7475 12.2035
600 8 -1.05 12.9489 15.1084 12.6093
601 8 -1.05 8.94691 12.9247 14.1587
602 8 -1.05 8.7738 12.8349 10.4634
603 8 -1.05 14.9939 14.9868 10.7066
604 8 -1.05 10.9337 10.9623 14.0511
605 8 -1.05 8.69056 10.9909 15.8868
606 8 -1.05 8.66163 15.0638 8.91615
607 8 -1.05 13.1372 13.0369 10.7183
608 8 -1.05 12.9758 12.8472 14.1809
609 8 -1.05 15.1457 8.77851 12.3201
610 8 -1.05 11.0303 8.7527 12.5595
611 8 -1.05 10.7546 15.1056 14.1966
612 8 -1.05 15.1516 11.0861 10.5457
613 8 -1.05 8.9404 8.66242 10.68
614 8 -1.05 8.85618 8.63302 14.1448
615 8 -1.05 11.0404 13.0977 12.3197
616 8 -1.05 15.0994 12.92 12.6708
617 11 -1.05 12.8188 15.1088 15.945
618 8 -1.05 12.9773 10.8578 8.96547
619 8 -1.05 14.835 10.8483 14.4542
620 8 -1.05 10.8491 15.228 10.5142
621 8 -1.05 12.9586 8.59427 10.4853
622 8 -1.05 13.121 8.74814 14.1991
623 8 -1.05 8.60545 10.8598 12.6154
624 8 -1.05 8.74153 14.9158 12.2496
625 8 -1.05 10.9943 12.9033 8.89476
626 8 -1.05 15.4682 12.8834 15.9406
627 8 -1.05 10.7667 10.8083 10.7724
628 8 -1.05 15.1496 15.1429 14.3101
629 8 -1.05 14.737 13.4069 1.28997
630 8 -1.05 12.7774 15.5094 1.13937
631 8 -1.05 9.02258 10.9253 1.32008
632 8 -1.05 10.9318 8.69667 1.44348
633 8 -1.05 10.7601 13.0995 16.0537
634 8 -1.05 12.5739 10.8884 16.3858
635 8 -1.05 8.88072 14.9056 16.0345
636 8 -1.05 15.465 8.74208 16.1785
637 13 1.575 11.9042 9.45273 16.9549
638 13 1.575 10.9146 14.8559 16.2196
639 7 1.575 15.5371 10.3963 15.9967
640 7 1.575 8.70173 13.1645 15.9655
641 9 0.52 9.86053 14.0321 18.7221
642 2 0 9.75822 13.7934 19.7976
643 10 -0.76 10.6915 14.9493 18.4006
644 10 -0.76 9.10538 13.4667 17.8996
645 12 0.475 13.3696 14.6709 16.6993
646 7 1.575 18.3126 9.76613 2.21532
647 7 1.575 24.7449 16.1695 7.8526
648 7 1.575 22.5595 9.68481 6.03603
649 7 1.575 20.4767 16.1413 4.40323
650 7 1.575 18.3122 14.05 5.97399
651 7 1.575 24.6739 11.929 4.20439
652 7 1.575 22.9153 15.074 1.6362
653 7 1.575 20.407 11.8649 7.88904
654 7 1.575 21.3827 8.85358 1.52313
655 6 1.05 18.9351 11.2038 5.13217
656 6 1.05 23.4308 15.4426 4.99173
657 6 1.05 23.9231 13.4154 6.84619
658 7 1.575 19.8943 13.3049 3.27162
659 7 1.575 25.3869 14.6932 3.1614
660 7 1.575 16.9685 10.5254 6.89496
661 7 1.575 17.7448 12.566 1.53497
662 7 1.575 20.9649 10.4874 3.49372
663 7 1.575 21.2497 14.7679 6.92158
664 6 1.05 19.2054 8.99461 6.9413
665 7 1.575 23.9264 9.19044 3.12207
666 6 1.05 17.4759 16.8715 5.03111
667 7 1.575 22.6346 11.9965 2.02585
668 7 1.575 19.4414 15.4272 1.58622
669 7 1.575 21.8528 12.5507 5.12724
670 8 -1.05 19.4576 8.97027 8.73238
671 8 -1.05 23.228 8.55616 1.65145
672 8 -1.05 21.5636 10.7795 5.07182
673 8 -1.05 21.5454 15.0869 5.23026
674 8 -1.05 17.2641 13.175 7.02041
675 8 -1.05 17.0639 12.9437 3.09134
676 8 -1.05 23.7261 15.0854 3.25007
677 8 -1.05 19.3886 10.8932 6.85448
678 8 -1.05 17.2708 10.7554 8.62779
679 8 -1.05 17.6639 15.0187 1.62885
680 8 -1.05 21.5437 12.6576 3.38242
681 8 -1.05 21.3389 12.8951 6.75719
682 8 -1.05 23.5086 8.81082 4.84318
683 8 -1.05 19.3139 8.57214 5.20919
684 8 -1.05 19.451 14.8667 6.96744
685 8 -1.05 23.6718 11.0005 3.11377
686 8 -1.05 17.166 8.8935 3.21814
687 8 -1.05 17.2378 8.75523 6.86072
688 8 -1.05 19.2728 13.012 4.89089
689 8 -1.05 23.5585 12.8842 5.14195
690 8 -1.05 21.5059 14.8687 8.64688
691 8 -1.05 21.5359 10.6407 1.6929
692 8 -1.05 23.6381 10.5846 6.9657
693 8 -1.05 19.7895 15.0113 3.26763
694 8 -1.05 21.2825 8.75557 3.37671
695 8 -1.05 21.547 8.77552 7.08047
696 8 -1.05 17.1504 10.9898 5.26885
697 8 -1.05 17.384 15.0223 4.85631
698 8 -1.05 19.382 12.9981 1.68757
699 8 -1.05 23.7168 13.0903 8.65588
700 8 -1.05 19.2522 10.658 3.39971
701 8 -1.05 23.779 15.194 6.81756
702 7 1.575 18.2802 9.82342 9.73034
703 7 1.575 24.8233 16.0693 15.2585
704 7 1.575 22.5846 9.77459 13.2803
705 7 1.575 20.4352 16.1164 11.5209
706 7 1.575 18.3418 14.0378 13.2297
707 7 1.575 24.7128 12.0144 11.6055
708 7 1.575 22.5989 13.9908 9.66298
709 7 1.575 20.3516 11.9991 15.2899
710 7 1.575 21.2151 9.058 8.78426
711 7 1.575 19.8138 10.4779 12.4224
712 6 1.05 23.9438 14.8278 12.5169
713 7 1.575 23.1855 12.6001 14.3987
714 6 1.05 19.0461 12.6103 10.6384
715 7 1.575 17.5904 15.4105 10.6094
716 7 1.575 17.6571 11.1603 14.2384
717 7 1.575 17.0055 13.2252 8.76162
718 7 1.575 21.9123 11.3173 10.5573
719 13 1.575 21.9247 15.586 14.4117
720 7 1.575 19.0678 16.8487 14.2597
721 6 1.05 23.2799 16.8018 10.5974
722 6 1.05 25.4069 8.97909 12.4381
723 6 1.05 23.8611 10.526 8.88582
724 6 1.05 19.6955 14.7574 8.86612
725 7 1.575 21.2494 13.3829 12.4447
726 8 -1.05 19.3753 8.62939 15.9282
727 8 -1.05 23.7717 8.70212 8.90063
728 8 -1.05 21.563 10.7475 12.2035
729 8 -1.05 21.4289 15.1084 12.6093
730 8 -1.05 17.4269 12.9247 14.1587
731 8 -1.05 17.2538 12.8349 10.4634
732 8 -1.05 23.4739 14.9868 10.7066
733 8 -1.05 19.4137 10.9623 14.0511
734 8 -1.05 17.1706 10.9909 15.8868
735 8 -1.05 17.1416 15.0638 8.91615
736 8 -1.05 21.6172 13.0369 10.7183
737 8 -1.05 21.4558 12.8472 14.1809
738 8 -1.05 23.6257 8.77851 12.3201
739 8 -1.05 19.5103 8.7527 12.5595
740 8 -1.05 19.2346 15.1056 14.1966
741 8 -1.05 23.6316 11.0861 10.5457
742 8 -1.05 17.4204 8.66242 10.68
743 8 -1.05 17.3362 8.63302 14.1448
744 8 -1.05 19.5204 13.0977 12.3197
745 8 -1.05 23.5794 12.92 12.6708
746 11 -1.05 21.2988 15.1088 15.945
747 8 -1.05 21.4573 10.8578 8.96547
748 8 -1.05 23.315 10.8483 14.4542
749 8 -1.05 19.3291 15.228 10.5142
750 8 -1.05 21.4386 8.59427 10.4853
751 8 -1.05 21.601 8.74814 14.1991
752 8 -1.05 17.0854 10.8598 12.6154
753 8 -1.05 17.2215 14.9158 12.2496
754 8 -1.05 19.4743 12.9033 8.89476
755 8 -1.05 23.9482 12.8834 15.9406
756 8 -1.05 19.2467 10.8083 10.7724
757 8 -1.05 23.6296 15.1429 14.3101
758 8 -1.05 23.217 13.4069 1.28997
759 8 -1.05 21.2574 15.5094 1.13937
760 8 -1.05 17.5026 10.9253 1.32008
761 8 -1.05 19.4118 8.69667 1.44348
762 8 -1.05 19.2401 13.0995 16.0537
763 8 -1.05 21.0539 10.8884 16.3858
764 8 -1.05 17.3607 14.9056 16.0345
765 8 -1.05 23.945 8.74208 16.1785
766 13 1.575 20.3842 9.45273 16.9549
767 13 1.575 19.3946 14.8559 16.2196
768 7 1.575 24.0171 10.3963 15.9967
769 7 1.575 17.1817 13.1645 15.9655
770 9 0.52 18.3405 14.0321 18.7221
771 2 0 18.2382 13.7934 19.7976
772 10 -0.76 19.1715 14.9493 18.4006
773 10 -0.76 17.5854 13.4667 17.8996
774 12 0.475 21.8496 14.6709 16.6993
775 7 1.575 1.35261 18.2461 2.21532
776 7 1.575 7.78494 24.6495 7.8526
777 7 1.575 5.59945 18.1648 6.03603
778 7 1.575 3.51672 24.6213 4.40323
779 7 1.575 1.35221 22.53 5.97399
780 7 1.575 7.71393 20.409 4.20439
781 7 1.575 5.95525 23.554 1.6362
782 7 1.575 3.447 20.3449 7.88904
783 7 1.575 4.42275 17.3336 1.52313
784 6 1.05 1.97511 19.6838 5.13217
785 6 1.05 6.47084 23.9226 4.99173
786 6 1.05 6.96306 21.8954 6.84619
787 7 1.575 2.93425 21.7849 3.27162
788 7 1.575 8.42693 23.1732 3.1614
789 7 1.575 0.00848227 19.0054 6.89496
790 7 1.575 0.784831 21.046 1.53497
791 7 1.575 4.00486 18.9674 3.49372
792 7 1.575 4.28966 23.2479 6.92158
793 6 1.05 2.24539 17.4746 6.9413
794 7 1.575 6.96642 17.6704 3.12207
795 6 1.05 0.515876 25.3515 5.03111
796 7 1.575 5.67465 20.4765 2.02585
797 7 1.575 2.48144 23.9072 1.58622
798 7 1.575 4.89277 21.0307 5.12724
799 8 -1.05 2.4976 17.4503 8.73238
800 8 -1.05 6.26799 17.0362 1.65145
801 8 -1.05 4.60359 19.2595 5.07182
802 8 -1.05 4.58541 23.5669 5.23026
803 8 -1.05 0.304058 21.655 7.02041
804 8 -1.05 0.103868 21.4237 3.09134
805 8 -1.05 6.76612 23.5654 3.25007
806 8 -1.05 2.42862 19.3732 6.85448
807 8 -1.05 0.310815 19.2354 8.62779
808 8 -1.05 0.703935 23.4987 1.62885
809 8 -1.05 4.58374 21.1376 3.38242
810 8 -1.05 4.37887 21.3751 6.75719
811 8 -1.05 6.54856 17.2908 4.84318
812 8 -1.05 2.35388 17.0521 5.20919
813 8 -1.05 2.49096 23.3467 6.96744
814 8 -1.05 6.71184 19.4805 3.11377
815 8 -1.05 0.20605 17.3735 3.21814
816 8 -1.05 0.277769 17.2352 6.86072
817 8 -1.05 2.31277 21.492 4.89089
818 8 -1.05 6.59846 21.3642 5.14195
819 8 -1.05 4.54585 23.3487 8.64688
820 8 -1.05 4.57593 19.1207 1.6929
821 8 -1.05 6.67813 19.0646 6.9657
822 8 -1.05 2.82948 23.4913 3.26763
823 8 -1.05 4.32246 17.2356 3.37671
824 8 -1.05 4.58703 17.2555 7.08047
825 8 -1.05 0.190357 19.4698 5.26885
826 8 -1.05 0.424003 23.5023 4.85631
827 8 -1.05 2.42204 21.4781 1.68757
828 8 -1.05 6.75677 21.5703 8.65588
829 8 -1.05 2.29221 19.138 3.39971
830 8 -1.05 6.81903 23.674 6.81756
831 7 1.575 1.32019 18.3034 9.73034
832 7 1.575 7.8633 24.5493 15.2585
833 7 1.575 5.62461 18.2546 13.2803