ITEM: TIMESTEP
0
ITEM: NUMBER OF ATOMS
52
ITEM: BOX BOUNDS pp pp ff
0.0000000000000000e+00 8.4800000000000004e+00
0.0000000000000000e+00 8.4800000000000004e+00
-1.0000000000000000e+02 1.0000000000000000e+02
ITEM: ATOMS id type c_coord
1 6 2
2 7 2
3 7 2
4 7 2
41 7 0
42 7 0
43 6 0
44 7 0
45 7 0
46 7 0
47 7 0
48 7 0
49 7 0
50 6 0
51 7 0
52 7 0
53 6 0
54 7 0
55 7 0
56 6 0
57 7 4
58 7 4
59 7 4
60 7 4
61 7 4
62 7 4
63 7 4
64 7 4
97 6 0
98 7 2
99 7 2
100 6 0
101 6 0
102 7 0
103 7 0
104 7 0
105 7 1
106 6 0
107 7 0
108 6 0
109 7 0
110 7 0
111 7 0
112 7 1
113 7 4
114 7 4
115 7 4
116 7 4
117 6 4
118 6 4
119 7 4
120 7 4
