LAMMPS data file via write_data, version 17 Feb 2022, timestep = 85017

4311 atoms
10 atom types
36 bonds
6 bond types
54 angles
6 angle types
0 dihedrals
2 dihedral types
9 impropers
2 improper types

0 25.44 xlo xhi
0 25.44 ylo yhi
-64.778423 32.908 zlo zhi

Masses

1 12.011
2 1.008
3 15.9994
4 15.9994
5 1.008
6 55.845
7 55.845
8 15.9994
9 15.9994
10 1.008

Pair Coeffs # lj/cut/coul/long

1 0.0988 3.31521
2 0.0161 2.4473
3 0.1463 3.04812
4 0.093 3.24287
5 0.0047 0.537925
6 9.0298e-07 4.9062
7 9.0298e-07 4.9062
8 0.1554 3.16554
9 0.1554 3.16554
10 0 0

Bond Coeffs # harmonic

1 361.8 1.105
2 652.57 1.218
3 383.13 1.351
4 563.51 0.973
5 554.135 1
6 0 2.08

Angle Coeffs # harmonic

1 51.617 106.55
2 65.93 123.65
3 65.262 109.49
4 115.745 122.1
5 118.817 130.25
6 30 109.47

Dihedral Coeffs # fourier

1 1 2.3 2 180
2 2 2.3 2 180 1.9 1 0

Improper Coeffs # cvff

1 10.5 -1 2
2 10.5 -1 2

Atoms # full

71 0 7 1.575 3.6294247993772415 4.374913343281433 -52.00787791111117 0 0 0
78 0 6 1.05 6.808532206757385 5.494224127172122 -53.35602357876788 0 0 0
74 0 6 1.05 4.713084116563379 7.548501700751412 -53.1732919111614 0 0 0
7 0 6 1.05 3.062927162529187 1.4052936531721154 -54.087380590344715 0 0 0
6 0 8 -1.05 2.593870462126174 3.001685840079497 -52.889893899070145 0 0 0
75 0 8 -1.05 4.953861894924167 5.723437056639832 -52.04735291475224 0 0 0
70 0 8 -1.05 2.685073993726514 7.46024141844738 -52.94514608619294 0 0 0
4 0 8 -1.05 0.11663968891574189 1.3495126503255084 -52.95836979026653 0 0 0
73 0 8 -1.05 4.378349149143138 7.787479587060892 -50.336636108761006 0 0 0
19 0 8 -1.05 6.833707934128507 3.507787290557758 -52.94059639623431 0 0 0
79 0 8 -1.05 7.153250326009631 5.178913203190699 -50.44716338358975 0 0 0
77 0 8 -1.05 6.727493478376049 7.445166733174516 -52.972459919728664 0 0 0
5 0 7 1.575 1.3450008065933114 2.1659096148180277 -51.71581300596978 0 0 0
76 0 7 1.575 5.734288012494862 6.426142796705377 -50.275134356194684 0 0 0
11 0 6 1.05 4.758298903052793 1.2333621009610984 -51.47952552330088 0 0 0
68 0 6 1.05 2.499396970704116 5.312267065534932 -48.955716852793024 0 0 0
63 0 6 1.05 0.13665534635286905 7.574148731053093 -49.22625323548965 0 0 0
62 0 7 1.575 0.3874257007139446 5.461025360510974 -51.72790218370761 0 0 0
12 0 7 1.575 4.629770072527516 3.314335394836171 -48.8787181641655 0 0 0
17 0 6 1.05 6.658881374917796 1.1126306224473652 -49.06189529233278 0 0 0
18 0 7 1.575 6.806972760771039 3.296220897170554 -51.02468507511166 0 0 0
69 0 7 1.575 2.437595020704009 7.5455587280524465 -51.05640227675986 0 0 0
15 0 8 -1.05 6.758780193046933 1.2685509769969863 -51.04588817865588 0 0 0
65 0 8 -1.05 0.3574586305696753 7.4380198301185105 -51.22959774572599 0 0 0
16 0 8 -1.05 6.601726808050589 3.115581429148078 -48.827127215774745 0 0 0
14 0 8 -1.05 4.699148261183548 3.206199727534722 -50.827976810814654 0 0 0
67 0 8 -1.05 2.1741863320702732 7.355151036861498 -48.97429108688729 0 0 0
13 0 8 -1.05 4.512436277584096 1.3050974834873776 -48.58505473351666 0 0 0
66 0 8 -1.05 2.2450277168466894 5.410272648458185 -51.003506014758585 0 0 0
8 0 8 -1.05 2.437679098738574 0.9177289039969163 -50.78912237667468 0 0 0
10 0 8 -1.05 4.86926033665662 1.0096370697463013 -53.450989717297304 0 0 0
2 0 8 -1.05 0.15730797732164903 3.5068766671498137 -51.12811653216149 0 0 0
20 0 7 1.575 7.816893032405323 0.14287538753797632 -52.296327289125145 0 0 0
80 0 8 -1.05 6.798326522620496 7.534442101582158 -48.81932780733582 0 0 0
72 0 8 -1.05 4.582272152347475 5.320094589864264 -48.786738380374715 0 0 0
9 0 8 -1.05 2.617377908257101 3.205573402298413 -48.75521705226077 0 0 0
1 0 8 -1.05 0.44452587133219207 1.1340283065021373 -48.65782788255793 0 0 0
369 0 7 1.575 2.508450022781142 1.1501677525988052 -48.85950042736846 0 0 0
81 0 8 -1.05 8.800607058628476 5.169259306875628 -53.37422958752442 0 0 0
22 0 8 -1.05 8.82685749024093 3.2481348417696205 -51.12368240378859 0 0 0
91 0 7 1.575 11.89467469645525 4.455114487681778 -52.28874554044643 0 0 0
23 0 7 1.575 8.826189701055043 3.2593714036888857 -53.168138257675636 0 0 0
27 0 7 1.575 10.967769770751259 1.216614235868829 -53.12261823316001 0 0 0
26 0 8 -1.05 10.848886504231471 3.153557855857167 -53.18838010829517 0 0 0
90 0 8 -1.05 11.077301399845492 7.807448615971183 -53.17126828620926 0 0 0
24 0 8 -1.05 8.995627397659035 1.3040899742100236 -53.24267009998554 0 0 0
25 0 7 1.575 9.892637093595972 2.2368446781991422 -49.94210482769821 0 0 0
88 0 7 1.575 10.932871831932323 5.474101209649156 -49.125792055111724 0 0 0
83 0 7 1.575 8.802860131715443 7.567301155047121 -48.875907763825936 0 0 0
82 0 6 1.05 8.86001536817676 5.697005905089285 -51.485798800176 0 0 0
89 0 6 1.05 10.873185247385889 7.642393199852021 -51.190014313837466 0 0 0
85 0 8 -1.05 8.828044479318041 7.648375734574757 -50.832504580652376 0 0 0
87 0 8 -1.05 10.918214434660065 7.442544206656629 -48.73781258718538 0 0 0
86 0 8 -1.05 10.858610425466962 5.5228552356097165 -51.01805027372531 0 0 0
28 0 8 -1.05 10.95984951141679 1.1424451738205503 -51.07125142440927 0 0 0
98 0 7 1.575 15.095496211982098 5.44932225513805 -53.110477202702626 0 0 0
94 0 7 1.575 13.02303658346857 7.607944389484988 -53.11240300493075 0 0 0
95 0 8 -1.05 13.151786071657408 5.599416902335343 -53.145966712209365 0 0 0
93 0 8 -1.05 12.96377605350074 7.65101190775623 -51.07582317558026 0 0 0
39 0 8 -1.05 15.18754738140284 3.381655523037985 -53.07359491967129 0 0 0
99 0 8 -1.05 15.170402923384563 5.497539098880141 -51.021200143270434 0 0 0
97 0 8 -1.05 15.010377902773097 7.441236148419415 -53.146990721860796 0 0 0
96 0 7 1.575 14.042172060976016 6.600121366448897 -49.94842174925895 0 0 0
31 0 6 1.05 12.957518799144788 1.271342974374718 -51.04281594706569 0 0 0
32 0 7 1.575 12.991795289186165 3.3676548593098174 -48.92875443413318 0 0 0
37 0 7 1.575 15.112520053607586 1.2017168290467053 -49.07761964002164 0 0 0
38 0 6 1.05 15.04758179923724 3.459169878084285 -51.024204180155465 0 0 0
35 0 8 -1.05 15.00197352507005 1.4065890541875565 -51.01732866865558 0 0 0
36 0 8 -1.05 14.997105710802591 3.2564341085099846 -48.8625279485872 0 0 0
34 0 8 -1.05 12.932146657999983 3.422919298234006 -50.89007484483531 0 0 0
33 0 8 -1.05 13.10445842966482 1.3356877013479949 -48.84377454106373 0 0 0
30 0 8 -1.05 13.052769866176748 1.160388492583342 -53.10209217913583 0 0 0
40 0 7 1.575 15.049974176748048 1.393665271940309 -53.02812823758061 0 0 0
21 0 8 -1.05 8.789618723747186 1.0824191512497754 -48.83729987634991 0 0 0
29 0 8 -1.05 10.972928372158677 3.4627081014035874 -48.81118975663772 0 0 0
100 0 8 -1.05 15.08703127698794 7.733862757468275 -48.781971539885426 0 0 0
92 0 8 -1.05 12.907483967080449 5.41492999377811 -48.827979414299655 0 0 0
3 0 6 1.05 25.0033772884163 3.0725706744335475 -53.843205108129276 -1 0 0
61 0 8 -1.05 25.383410746936004 4.998357418051206 -53.53477782418225 -1 0 0
60 0 7 1.575 24.485542348525783 0.03801652459279836 -52.05103200476846 0 0 0
50 0 8 -1.05 20.420020502404032 0.2302884704418209 -52.53699753670448 0 0 0
48 0 8 -1.05 19.6443036397354 1.1652665187174824 -50.12967348357766 0 0 0
106 0 8 -1.05 19.20276703572271 5.656336241240278 -50.969864722515894 0 0 0
54 0 8 -1.05 21.46988536703012 3.3088782214095778 -50.852534869600966 0 0 0
56 0 8 -1.05 23.601516750753742 3.5436277599291666 -48.89887652681556 0 0 0
105 0 8 -1.05 17.285571110955555 7.627983140235455 -51.06919144240503 0 0 0
104 0 8 -1.05 17.2076385421093 5.679075276347391 -49.00793784631719 0 0 0
55 0 8 -1.05 23.4690448345705 1.3918125066190499 -50.94463102353873 0 0 0
109 0 7 1.575 19.252159951938 7.631640576855675 -51.366239460946545 0 0 0
58 0 7 1.575 23.596295080353798 3.47745792726675 -51.01862956491589 0 0 0
57 0 6 1.05 23.805735246837475 1.477436813840872 -48.905569293122916 0 0 0
52 0 6 1.05 21.42312431905576 3.6360215392104798 -48.844674379100844 0 0 0
102 0 7 1.575 17.177394759591508 5.593372645270857 -51.06102780143451 0 0 0
103 0 6 1.05 17.21183936345733 7.763126027212714 -48.99575187825072 0 0 0
108 0 6 1.05 19.25425916124743 5.618344385251192 -48.9181535457431 0 0 0
51 0 7 1.575 21.465485610272477 1.3530439336872626 -51.14879056316019 0 0 0
116 0 7 1.575 22.636296359706666 6.834319738531422 -51.31812965430261 0 0 0
45 0 7 1.575 18.294189407143104 2.471898040106831 -49.84789161164264 0 0 0
117 0 8 -1.05 23.442080710179148 7.501168343303086 -52.96635165840628 0 0 0
119 0 8 -1.05 23.8868581722923 5.445657234801554 -51.07705694686006 0 0 0
59 0 8 -1.05 23.236041199126323 3.3954481416274445 -52.97578525960539 0 0 0
113 0 8 -1.05 21.111800800045156 7.740499692586026 -50.655825239876926 0 0 0
44 0 8 -1.05 17.068518794006575 1.2806149589562523 -53.31691799030936 0 0 0
110 0 8 -1.05 19.459790636933274 7.828047028348996 -53.25773664752423 0 0 0
115 0 8 -1.05 21.552897588513265 5.797763158570297 -52.65837586437669 0 0 0
46 0 8 -1.05 19.322914962772877 3.07808941862599 -52.799381504658484 0 0 0
47 0 6 1.05 19.051900906690022 1.3072821589815207 -53.586956033889464 0 0 0
114 0 6 1.05 21.453565804714067 7.7560065623428995 -53.71371691471871 0 0 0
43 0 6 1.05 17.281386105941205 3.3482572557221584 -52.9740014086325 0 0 0
118 0 6 1.05 23.41994752045909 5.405914261420694 -53.454179485446296 0 0 0
111 0 7 1.575 20.347887161525115 4.472685936744689 -52.02691906504679 0 0 0
42 0 8 -1.05 17.157504935060253 3.5769040379746637 -50.87157596574624 0 0 0
101 0 8 -1.05 17.04016104483791 5.346059895877633 -52.990242903217805 0 0 0
49 0 8 -1.05 19.25904694176511 3.5957080178724596 -48.590987749770875 0 0 0
112 0 8 -1.05 21.27855975969828 5.685549820875926 -48.52668582134496 0 0 0
120 0 8 -1.05 23.38546413224899 7.747714069959498 -48.92687391316516 0 0 0
41 0 8 -1.05 17.121098656486183 1.1784264637835524 -48.98354349832994 0 0 0
481 0 7 1.575 21.263628580488557 7.831373361691582 -48.68921539146989 0 0 0
140 0 7 1.575 7.746232981301483 8.784824666089856 -52.11972659763062 0 0 0
128 0 8 -1.05 2.495229838701911 9.523490583480685 -50.82978311974077 0 0 0
130 0 8 -1.05 4.458884251391359 9.489698230365592 -52.870712409760294 0 0 0
123 0 7 1.575 0.3639508274585865 11.847644875096476 -53.11555004340295 0 0 0
127 0 6 1.05 2.499726560568427 9.68840409545034 -53.268976645344715 0 0 0
126 0 8 -1.05 2.302384672977606 11.728043428010777 -52.931629153290466 0 0 0
124 0 8 -1.05 0.4472293098750571 9.881640033677083 -53.309044014571334 0 0 0
139 0 8 -1.05 6.897122889769659 11.993073701428665 -53.01685158450326 0 0 0
125 0 7 1.575 1.4116958250999996 10.822046532882966 -49.9783446977583 0 0 0
131 0 7 1.575 4.5663447223040725 9.786368392380284 -51.00240078123986 0 0 0
132 0 7 1.575 4.543118236587904 11.890103476684743 -48.83533288299083 0 0 0
137 0 6 1.05 6.7057239421410815 9.706667455802236 -48.85254518564787 0 0 0
138 0 6 1.05 6.664795613439045 11.827438210381942 -51.022885068933235 0 0 0
135 0 8 -1.05 6.563628473333359 9.71957499013592 -50.86347732037411 0 0 0
136 0 8 -1.05 6.529388197944654 11.789590074753542 -48.70185487703544 0 0 0
134 0 8 -1.05 4.486540266375226 11.767529730759163 -50.79621520383153 0 0 0
133 0 8 -1.05 4.5890907642440695 9.90951887525025 -48.73849862047382 0 0 0
122 0 8 -1.05 0.17576806703498832 11.802451660818537 -51.02388491027006 0 0 0
191 0 7 1.575 3.5309381535721687 12.917337441273732 -52.13219065313376 0 0 0
198 0 7 1.575 6.732438649001848 13.967098613957033 -52.97629751329332 0 0 0
194 0 6 1.05 4.626739124476987 16.07813462669536 -53.22820376951284 0 0 0
195 0 8 -1.05 4.781292708188015 14.024132239344446 -52.997307174115136 0 0 0
190 0 8 -1.05 2.5628951233972717 16.23141252808994 -53.035191373701416 0 0 0
193 0 8 -1.05 4.3893923236693775 16.161243323347733 -50.80940171444161 0 0 0
199 0 8 -1.05 6.7848441232558745 13.906456518470712 -50.9032939154554 0 0 0
197 0 8 -1.05 6.655260937600519 15.913345696123663 -53.019669879221496 0 0 0
196 0 7 1.575 5.60317279225765 15.017307768723523 -49.93113356983406 0 0 0
188 0 6 1.05 2.4315225061395433 13.98089185507533 -48.912996727317925 0 0 0
183 0 7 1.575 0.2935331262935192 16.075799342222197 -48.957107397853335 0 0 0
182 0 6 1.05 0.35653528107071186 13.938185057657577 -51.12114053148955 0 0 0
189 0 7 1.575 2.4457638636988888 16.02439127598819 -51.12898474043121 0 0 0
184 0 8 -1.05 0.3267857033658498 14.09464652363262 -48.851987222043924 0 0 0
185 0 8 -1.05 0.3872088425445543 16.090312469446072 -50.91412744371032 0 0 0
187 0 8 -1.05 2.266114427113628 16.058155581263403 -48.81162463129388 0 0 0
186 0 8 -1.05 2.434106775710593 14.034335516826898 -50.92781295550975 0 0 0
181 0 8 -1.05 0.15975797079092283 13.804476532248517 -53.117204410749885 0 0 0
129 0 8 -1.05 2.4581881182241174 11.864438531889904 -48.70021940537033 0 0 0
121 0 8 -1.05 0.16045685424750397 9.642294199735439 -48.876754787534566 0 0 0
200 0 8 -1.05 6.694496676602045 16.154329629384726 -48.73970007409287 0 0 0
192 0 8 -1.05 4.531610100931135 13.881708390875254 -48.74148390243096 0 0 0
142 0 8 -1.05 8.782931079750695 11.905160756050117 -50.93820908414977 0 0 0
148 0 8 -1.05 11.014947629405683 9.69646996145383 -51.001700982122436 0 0 0
143 0 7 1.575 8.851273231336773 11.879041490705138 -52.97841751625869 0 0 0
147 0 7 1.575 10.96448777333861 9.779536362603487 -53.06324326197675 0 0 0
146 0 8 -1.05 10.840812776839721 11.751739427944441 -53.038369127063994 0 0 0
144 0 8 -1.05 8.992930768116874 9.90498756458188 -53.01169994259562 0 0 0
145 0 7 1.575 9.894048556010642 10.777523873118339 -49.91713931638636 0 0 0
201 0 8 -1.05 8.714651411103207 13.823422013609274 -53.032459992707444 0 0 0
211 0 7 1.575 12.010394108666766 13.00329090043284 -52.20714034328863 0 0 0
210 0 8 -1.05 11.249813538715514 16.339364353459274 -53.047732956819644 0 0 0
208 0 7 1.575 11.00902236127437 14.001269117755278 -48.93130603023728 0 0 0
203 0 6 1.05 8.824414674585656 16.113807171304195 -48.957747426204705 0 0 0
202 0 6 1.05 8.863600215388711 14.051661703027735 -51.036601319594546 0 0 0
209 0 7 1.575 10.986580497183319 16.12407045305396 -51.128469661589854 0 0 0
204 0 8 -1.05 9.011373967030249 14.047178607666327 -48.795967332645226 0 0 0
205 0 8 -1.05 8.983350065189585 16.176421342181467 -50.97341345753463 0 0 0
207 0 8 -1.05 10.933815931746185 15.975713364351012 -48.89141964794089 0 0 0
206 0 8 -1.05 11.03321686414488 14.112368011490673 -50.90218956274111 0 0 0
160 0 7 1.575 16.13510720633083 8.752481228718484 -52.32853315766525 0 0 0
150 0 8 -1.05 12.934263471885586 9.576606147913306 -53.12344864496071 0 0 0
159 0 8 -1.05 15.35471951785943 11.958979632703308 -53.04931920620537 0 0 0
151 0 6 1.05 13.080005209642474 9.76494022405595 -51.11755447029063 0 0 0
152 0 7 1.575 12.999247110172607 11.862835457781205 -48.930175972915315 0 0 0
157 0 6 1.05 15.14939966413874 9.859336221967098 -48.98132338058183 0 0 0
158 0 7 1.575 15.100580680547068 11.849060112746038 -51.141578148000484 0 0 0
155 0 8 -1.05 15.180366508119885 9.852003823582043 -51.01129180609025 0 0 0
156 0 8 -1.05 15.001125456626104 11.971757119604838 -49.05746294507294 0 0 0
154 0 8 -1.05 13.107010778114898 11.918129514256407 -50.93265487774367 0 0 0
153 0 8 -1.05 13.08012233034903 9.901914941174795 -48.80109819229051 0 0 0
218 0 6 1.05 15.07818872795181 13.861081595058678 -53.4491270538267 0 0 0
214 0 7 1.575 13.140928616631214 16.046651686684324 -53.22584204226725 0 0 0
215 0 8 -1.05 13.132659638731646 14.128543382352722 -53.27222641459844 0 0 0
213 0 8 -1.05 13.18633558646572 16.239420015841514 -51.21505239399896 0 0 0
219 0 8 -1.05 15.304483732398761 14.025585103951855 -50.89090838105484 0 0 0
217 0 8 -1.05 15.261129078572802 15.903805880207411 -53.04873570842965 0 0 0
216 0 7 1.575 15.115000947713089 16.092155436142985 -51.083005139619594 0 0 0
141 0 8 -1.05 8.899734407279842 9.603627114337783 -48.69927842720049 0 0 0
149 0 8 -1.05 11.019147988380114 11.958669208059261 -48.82929976974526 0 0 0
514 0 7 1.575 15.08589410965962 13.943330471519307 -48.948475284218794 0 0 0
220 0 8 -1.05 15.350065592370536 16.064510808462384 -49.0196610141211 0 0 0
212 0 8 -1.05 13.098638850605074 13.868168339177732 -48.70846520849052 0 0 0
173 0 8 -1.05 21.59673948509189 9.801467321805157 -48.871675289919324 0 0 0
174 0 8 -1.05 21.45528765107048 11.827660078403541 -50.91610463200756 0 0 0
176 0 8 -1.05 23.459545118140905 11.701024695559346 -48.79528041144646 0 0 0
175 0 8 -1.05 23.565666058549077 9.60276818671628 -50.995622684093654 0 0 0
178 0 6 1.05 23.550257826207538 11.789371883861914 -51.25294505928946 0 0 0
177 0 7 1.575 23.587950956107868 9.741730456764737 -49.05320122100849 0 0 0
172 0 7 1.575 21.454002298162834 11.822389704038118 -48.96839147788048 0 0 0
171 0 6 1.05 21.44527982231696 9.804255518833575 -51.19725081762327 0 0 0
165 0 7 1.575 18.26855175975315 10.764526834811077 -49.969007353026605 0 0 0
179 0 8 -1.05 23.812544619900244 11.971534217474494 -53.21791952270466 0 0 0
164 0 8 -1.05 17.373227970196666 9.90275376960249 -53.24485371358807 0 0 0
166 0 8 -1.05 19.223723996520448 11.776880306808472 -53.165171275800915 0 0 0
167 0 7 1.575 19.339784005871305 9.809248745302863 -53.2143686896536 0 0 0
163 0 7 1.575 17.279605035779397 11.884775103009181 -53.14332761970693 0 0 0
170 0 8 -1.05 21.27513389317769 9.67186253742161 -53.17425365203965 0 0 0
168 0 8 -1.05 19.27542953556506 9.640341983800031 -51.155691946616805 0 0 0
162 0 8 -1.05 17.17799186177726 11.87829675450791 -51.08492827855345 0 0 0
180 0 7 1.575 24.73933493435942 8.769981523111383 -52.34916092682286 0 0 0
226 0 8 -1.05 19.40139946209122 14.022452557638708 -51.05962028151172 0 0 0
227 0 8 -1.05 19.304242648586552 15.957352758165037 -48.99488553886834 0 0 0
225 0 8 -1.05 17.304221691872822 15.974636390575355 -51.02219513492395 0 0 0
224 0 8 -1.05 17.21434491849027 14.12089635122081 -48.76144749050763 0 0 0
229 0 7 1.575 19.461278967669138 16.023143455023035 -51.119204283308164 0 0 0
222 0 6 1.05 17.35956978637283 13.871322647006942 -51.12735753367103 0 0 0
223 0 7 1.575 17.35689195814169 16.135789200422913 -49.01759539396188 0 0 0
228 0 6 1.05 19.41081328290479 13.899008700602625 -49.05359068872901 0 0 0
236 0 7 1.575 22.586654931067066 14.999029793581107 -50.01991206031088 0 0 0
237 0 8 -1.05 23.531119972872073 15.92563742963119 -53.168727472652535 0 0 0
239 0 8 -1.05 23.66148001374589 13.871182607580176 -51.08209454566847 0 0 0
233 0 8 -1.05 21.423983175178314 16.15260819383158 -51.01035644657602 0 0 0
230 0 8 -1.05 19.224128782017228 16.067588974240834 -53.05367634709903 0 0 0
235 0 8 -1.05 21.66213945601636 14.029937757252448 -53.208455113579085 0 0 0
234 0 6 1.05 21.50620489088257 16.064389633809224 -53.31332156192248 0 0 0
238 0 7 1.575 23.640203174315996 13.955088848135171 -53.14298221889296 0 0 0
231 0 7 1.575 20.50150016554978 12.878924618100285 -52.271759847058156 0 0 0
221 0 8 -1.05 17.167780026330387 13.924234201360873 -53.20025122220204 0 0 0
280 0 7 1.575 17.2706753549981 15.8839355562748 -53.21536327816955 0 0 0
169 0 8 -1.05 19.41198945096591 11.860056216958364 -48.81783445697231 0 0 0
161 0 8 -1.05 17.20306337505505 9.80505556751548 -48.67444330236543 0 0 0
232 0 8 -1.05 21.482108603481212 13.85661274149342 -48.8581290532361 0 0 0
240 0 8 -1.05 23.668620691394025 16.088762812017034 -48.78443176921177 0 0 0
260 0 7 1.575 7.799592932967529 17.168124329874793 -52.213428223916615 0 0 0
248 0 8 -1.05 2.4556591268671277 18.097893231321354 -51.03380658012815 0 0 0
250 0 8 -1.05 4.405261963797754 18.138535652388907 -53.12199013987063 0 0 0
311 0 7 1.575 3.664700672091486 21.24901623004405 -52.395905268494424 0 0 0
318 0 6 1.05 6.767836744522943 22.360979013599696 -53.48346961013012 0 0 0
243 0 7 1.575 0.363509124838889 20.204412080956548 -53.18680600652352 0 0 0
314 0 7 1.575 4.742055624501003 24.50883447467173 -53.30345911491803 0 0 0
247 0 7 1.575 2.4895240085524155 18.172686849708235 -53.11686851069617 0 0 0
246 0 8 -1.05 2.3115109024808147 20.177303833748688 -53.203994547027925 0 0 0
315 0 8 -1.05 4.6314655256235415 22.582245213163397 -53.337607110858414 0 0 0
310 0 8 -1.05 2.744274186635677 24.958062341469706 -53.37720603201914 0 0 0
244 0 8 -1.05 0.5221620208982545 18.25798442095486 -53.15569141166417 0 0 0
313 0 8 -1.05 4.446808352118909 24.57827333759501 -51.23172347265168 0 0 0
259 0 8 -1.05 6.901185459946336 20.40738159355068 -53.01875286702336 0 0 0
319 0 8 -1.05 6.7858468911759156 22.27488150354931 -50.825208454600684 0 0 0
317 0 8 -1.05 6.656760704230272 24.342497994938675 -53.112401848036534 0 0 0
245 0 7 1.575 1.3802202149568776 19.230101536598387 -49.95217592538105 0 0 0
316 0 7 1.575 5.568155758653847 23.513534393708724 -50.07946291725032 0 0 0
251 0 6 1.05 4.635579080022533 18.19019839446977 -51.141300586560234 0 0 0
308 0 6 1.05 2.577146819939345 22.36228670869811 -49.10672311327 0 0 0
303 0 6 1.05 0.4328346954866313 24.552147783588634 -49.114230595730135 0 0 0
302 0 7 1.575 0.41276657336730266 22.348589446550584 -51.22099413877289 0 0 0
252 0 6 1.05 4.536494522237998 20.295708507368104 -48.97201834966222 0 0 0
257 0 7 1.575 6.698106003985102 18.165104140525152 -48.953334449440575 0 0 0
258 0 7 1.575 6.676134902422555 20.30214174355532 -51.107544672429384 0 0 0
309 0 7 1.575 2.459134829884413 24.479865246919758 -51.54711506946932 0 0 0
255 0 8 -1.05 6.758333872501701 18.266893597016054 -50.908707105209075 0 0 0
304 0 8 -1.05 0.5770556230124443 22.500596583140847 -49.170793722995846 0 0 0
305 0 8 -1.05 0.44200082583231537 24.43000234139487 -51.17255302875565 0 0 0
256 0 8 -1.05 6.637538522699754 20.158279945870472 -48.92218077143507 0 0 0
254 0 8 -1.05 4.6586152269893555 20.337839423768404 -50.99703797893974 0 0 0
253 0 8 -1.05 4.720367316088926 18.253335150038858 -48.79262759107785 0 0 0
306 0 8 -1.05 2.4492665318117415 22.519128250364716 -51.22677341730584 0 0 0
301 0 8 -1.05 0.024212751578380286 22.196756629879538 -53.11905835253168 0 0 0
242 0 8 -1.05 0.3391403621696218 20.33761941392192 -51.125153553211 0 0 0
320 0 8 -1.05 6.730501905345821 24.526812548592208 -48.835523471541705 0 0 0
312 0 8 -1.05 4.5857065040386775 22.464314710144087 -48.74579111738474 0 0 0
249 0 8 -1.05 2.4429314491668443 20.289134273583336 -48.726262085572955 0 0 0
241 0 8 -1.05 0.2501895903840438 18.096207448321262 -48.836044702238844 0 0 0
326 0 8 -1.05 10.963542948462875 22.4223667807295 -50.96236131404105 0 0 0
327 0 8 -1.05 10.8013448295956 24.39718734447659 -48.88259329616011 0 0 0
325 0 8 -1.05 8.812291439018132 24.53429362177046 -50.95533398530302 0 0 0
324 0 8 -1.05 8.952438400202055 22.532921395288806 -48.72382000515452 0 0 0
329 0 6 1.05 10.866329694836573 24.482818314378736 -51.20524788474411 0 0 0
322 0 6 1.05 8.788105397169042 22.48872516362595 -51.3405380594431 0 0 0
323 0 7 1.575 8.776503003324825 24.519408767223794 -49.01930970496267 0 0 0
328 0 7 1.575 10.930999540486551 22.396106321390423 -49.01224521198188 0 0 0
265 0 7 1.575 9.85741647646979 19.22589390756737 -50.017771210409954 0 0 0
264 0 8 -1.05 8.923499816218479 18.34596145112257 -53.18521273041874 0 0 0
330 0 8 -1.05 11.209277576062865 24.731995403392016 -53.18881250592668 0 0 0
266 0 8 -1.05 10.8893963477078 20.174505972717018 -53.157552894428555 0 0 0
267 0 6 1.05 10.877540535064027 18.201613836406047 -53.617972090055474 0 0 0
263 0 7 1.575 8.876143490309547 20.276975186388793 -53.12066078465374 0 0 0
321 0 8 -1.05 8.820596134218976 22.19712009975117 -53.30226128282137 0 0 0
262 0 8 -1.05 8.757152843631077 20.373401847531724 -51.04891307165457 0 0 0
268 0 8 -1.05 11.13954535260471 18.081640910875024 -50.79239858875168 0 0 0
331 0 7 1.575 11.995132122102406 21.45835223046195 -52.321670254364086 0 0 0
273 0 8 -1.05 13.204486616046525 18.363832248198392 -48.7198474502121 0 0 0
274 0 8 -1.05 13.145272534865594 20.33910511070925 -51.065001437637875 0 0 0
275 0 8 -1.05 15.176973976707199 18.21825265242055 -51.07326424349621 0 0 0
278 0 7 1.575 15.11632324721591 20.253220649615418 -51.196656991108064 0 0 0
277 0 6 1.05 15.181423341737478 18.149534407940074 -49.052794637637696 0 0 0
272 0 7 1.575 13.028552347718914 20.276106880410968 -49.09528513083901 0 0 0
271 0 6 1.05 13.001306324382718 18.295364132989917 -51.51682721983381 0 0 0
336 0 7 1.575 14.180674836318419 23.39205764703758 -50.136315683019546 0 0 0
337 0 8 -1.05 15.003930219903292 24.824724753825667 -53.220176117460795 0 0 0
339 0 8 -1.05 15.341786806345691 22.24216821378481 -51.13342341216636 0 0 0
279 0 8 -1.05 15.4227978899258 20.36054786305638 -53.08081387152756 0 0 0
333 0 8 -1.05 13.024125835017559 24.59664869720199 -51.04729161010633 0 0 0
335 0 8 -1.05 13.400562649085442 22.579449199372092 -53.071007285428955 0 0 0
334 0 7 1.575 13.102619368563529 24.525782299806053 -53.05540080940091 0 0 0
270 0 8 -1.05 13.402269396648709 17.960443012390613 -53.49075290996181 0 0 0
338 0 7 1.575 15.381960595276972 22.302879596550607 -53.16954025305165 0 0 0
342 0 6 1.05 16.942277345357194 24.716933892478014 -52.821043783070095 0 0 0
283 0 6 1.05 15.356615520919311 18.458036017116367 -53.73000981260068 0 0 0
282 0 8 -1.05 15.198780893064923 20.23762399198657 -49.187879882042125 0 0 0
269 0 8 -1.05 11.044334543687834 20.370726165444463 -48.88014423089656 0 0 0
261 0 8 -1.05 8.727533687004366 18.235547942244015 -48.78508859894681 0 0 0
332 0 8 -1.05 13.028951571663889 22.31087622491092 -48.96344552303667 0 0 0
340 0 8 -1.05 15.322976094425613 24.55537216086163 -49.04154835040258 0 0 0
346 0 8 -1.05 20.50490936019868 23.019222412367434 -51.42481730459213 0 0 0
293 0 8 -1.05 21.589196643480385 18.279143918668687 -48.899355772873804 0 0 0
294 0 8 -1.05 21.57271056076574 20.16000227765895 -50.96567453808025 0 0 0
296 0 8 -1.05 23.528447452003864 20.265227463725942 -48.5907214971891 0 0 0
345 0 8 -1.05 19.28258283175882 24.084695615627126 -48.91237177777889 0 0 0
295 0 8 -1.05 23.527833904553425 18.104174275826693 -51.09695790204214 0 0 0
349 0 7 1.575 19.676310572581734 24.75496395197986 -50.9350010851904 0 0 0
298 0 6 1.05 23.687417578913674 20.138063755053423 -51.33388432572687 0 0 0
297 0 6 1.05 23.671571377756614 18.16303519623278 -49.094699238690225 0 0 0
292 0 7 1.575 21.550135685354068 20.225660312040944 -48.97870672473324 0 0 0
343 0 7 1.575 17.310308302276873 24.651502286396433 -49.12346230415933 0 0 0
348 0 6 1.05 19.529710536425615 22.142381524625826 -49.849867849423674 0 0 0
291 0 7 1.575 21.538362468447286 18.128664903009135 -51.28982020522386 0 0 0
356 0 7 1.575 22.371937800005778 23.380504236215216 -50.630403020764476 0 0 0
285 0 7 1.575 18.477580379999583 19.33147553743509 -50.00200386028113 0 0 0
357 0 8 -1.05 23.008942943048993 24.274590474572307 -52.32539847165874 0 0 0
359 0 8 -1.05 23.826032327159275 22.138497021132768 -50.674808432879416 0 0 0
299 0 8 -1.05 23.86465970345099 20.124148142942182 -53.30000471998286 0 0 0
353 0 8 -1.05 21.565293809475854 25.03556841833652 -50.07725943323734 0 0 0
284 0 8 -1.05 17.21514217237593 17.682052471683484 -53.93321174498959 0 0 0
350 0 8 -1.05 17.775038091061013 24.584129294107086 -51.00305111933555 0 0 0
355 0 8 -1.05 21.52714614408462 22.03743540114376 -53.67023432591561 0 0 0
286 0 8 -1.05 18.869215637339877 20.76870120078011 -51.252326401144764 0 0 0
287 0 6 1.05 19.188697790360244 17.949518123236786 -53.843899027757296 0 0 0
354 0 6 1.05 21.25827527250577 23.95756915637084 -53.290110049481456 0 0 0
358 0 6 1.05 23.544269057202367 21.99411610531682 -53.80074567177585 0 0 0
351 0 7 1.575 20.48256231974324 21.119882036220353 -52.332200108623 0 0 0
290 0 8 -1.05 21.027324823302415 18.159398344433182 -53.14629309381016 0 0 0
288 0 8 -1.05 19.524536521082755 17.994711331637404 -50.83252650259536 0 0 0
341 0 8 -1.05 17.10483631184799 22.951256433252755 -53.64695432267143 0 0 0
300 0 7 1.575 24.77895020395975 17.044426257153884 -52.29386527849501 0 0 0
289 0 8 -1.05 19.545221136630886 20.403250864685845 -48.70932301259222 0 0 0
352 0 8 -1.05 21.594511095277518 22.257043072551664 -49.00023300365044 0 0 0
360 0 8 -1.05 23.895628268041897 24.15133592013181 -48.72918499000945 0 0 0
612 0 7 1.575 24.19808767746792 22.12438364256827 -48.72918299375661 0 0 0
281 0 8 -1.05 17.366835825865707 18.160002867069725 -48.81785787449775 0 0 0
64 0 8 -1.05 0.07478856653441164 6.376157122455526 -47.513659408788946 0 0 0
416 0 7 1.575 7.710236955086573 4.402277293511492 -47.928190436903826 0 0 0
368 0 6 1.05 2.3731559357495975 3.459020176617982 -46.7229563874197 0 0 0
415 0 6 1.05 6.736381401839638 7.5258458086437265 -46.78828285530133 0 0 0
361 0 7 1.575 0.3249772354592679 1.3334966472363872 -46.71776770657233 0 0 0
408 0 7 1.575 4.623169625956092 5.3810756387915 -46.7729717244341 0 0 0
371 0 8 -1.05 4.478512584359183 3.341309100130357 -46.77868410308181 0 0 0
411 0 8 -1.05 4.605827205902837 7.439611747101818 -46.757040028132316 0 0 0
365 0 8 -1.05 2.4894266158544784 1.304713683309728 -46.571683473802615 0 0 0
406 0 8 -1.05 2.6086560443424465 5.457173870987081 -46.6954799925569 0 0 0
412 0 8 -1.05 6.611968320525796 5.420233974125853 -46.68687838655832 0 0 0
364 0 8 -1.05 0.29013523858160567 3.336590704485613 -46.70702515532085 0 0 0
373 0 8 -1.05 6.55618612649881 0.9802467302602322 -46.48849473644736 0 0 0
404 0 8 -1.05 0.17533445373911305 8.329093257379558 -45.52192818102171 0 0 0
372 0 7 1.575 4.605473368176519 1.339744193009399 -46.63697332768199 0 0 0
405 0 7 1.575 1.290354835437315 6.666760112358605 -45.90536612632824 0 0 0
663 0 7 1.575 3.609295579790218 4.40891560366307 -43.608774528525736 0 0 0
414 0 6 1.05 6.707312363086637 5.354883445737171 -44.659580716144184 0 0 0
362 0 6 1.05 0.305310061313976 3.435286871724885 -44.66245137259334 0 0 0
409 0 7 1.575 4.625924234185848 7.5880646577193485 -44.784168822788686 0 0 0
367 0 7 1.575 2.450022109838056 1.2934103615734835 -44.568552960949106 0 0 0
366 0 8 -1.05 2.402174515408495 3.25709899559996 -44.52615013454945 0 0 0
410 0 8 -1.05 4.649717967336246 5.569830219428987 -44.68853285756744 0 0 0
407 0 8 -1.05 2.615324534637817 7.5769673952701835 -44.504844888319234 0 0 0
363 0 8 -1.05 0.47505984947583957 1.3226248810905323 -44.67516400710293 0 0 0
665 0 8 -1.05 4.5493508036055275 7.592409109834618 -42.48471114324166 0 0 0
374 0 8 -1.05 6.868981551244521 3.2021084857013786 -44.36636448562513 0 0 0