LAMMPS (17 Feb 2022)
variable layer index 21
variable type string fa_int_half_qeq
variable rand equal round(random(0,1e7,452345))
variable temp index 50000 45000 40500 36450 32805 29524 26571 23913 21521 19368 17431 15687 14118 12706 11435 10291 9261 8334 7500 6750 6075 5467 4920 4428 3985 3586 3227 2904 2613 2351 2115 1903 1712 1540 1386 1247 1122 1009 908 817 735 661 594 534 480 432 388 349 314 282 253 227 204 183 164 147 132 118 106 95 85 76 68 61 54 48 43 38 34 30 27 24 21 18 16 14 12 10 9 8 7 6 5 4 3 2 1

variable nsteps equal 972  # (nfe*nfe)/4

include settings.lmp
units              real
atom_style         full
timestep	   0.5
boundary	   p p f

pair_style         lj/cut/coul/long 12.0
bond_style         harmonic
angle_style        harmonic
dihedral_style     fourier
improper_style     cvff
kspace_style       pppm 1.0e-6
kspace_modify      slab 3.0

pair_modify        mix arithmetic
special_bonds      amber
neighbor           2.0 bin
neigh_modify       every 1 delay 0 check yes

read_data 001-dbt_3x3_${layer}L_${type}.data
read_data 001-dbt_3x3_21L_${type}.data
read_data 001-dbt_3x3_21L_fa_int_half_qeq.data
Reading data file ...
  orthogonal box = (0 0 -64.778423) to (25.44 25.44 32.908)
  1 by 1 by 4 MPI processor grid
  reading atoms ...
  4311 atoms
  reading velocities ...
  4311 velocities
  scanning bonds ...
  3 = max bonds/atom
  scanning angles ...
  3 = max angles/atom
  scanning impropers ...
  1 = max impropers/atom
  reading bonds ...
  36 bonds
  reading angles ...
  54 angles
  reading impropers ...
  9 impropers
Finding 1-2 1-3 1-4 neighbors ...
  special bond factors lj:    0        0        0.5     
  special bond factors coul:  0        0        0.8333333333333334
     3 = max # of 1-2 neighbors
     2 = max # of 1-3 neighbors
     2 = max # of 1-4 neighbors
     3 = max # of special neighbors
  special bonds CPU = 0.000 seconds
  read_data CPU = 0.011 seconds

include ff_formic_acid_fe304.param
#####################-----formic_acid-----######################################

mass  1   12.011   # Sp2 C carbonyl group
mass  2    1.008   # H bonded to non-sp3 carbon with 2 electrwd. group
mass  3   15.9994  # Oxygen with one connected atom
mass  4   15.9994  # Oxygen in hydroxyl group
mass  5    1.008   # Hydroxyl group

pair_coeff  1  1   0.0988  3.31521230994  # c
pair_coeff  2  2   0.0161  2.44729877873  # h5
pair_coeff  3  3   0.1463  3.04812087425  # o
pair_coeff  4  4   0.0930  3.24287133403  # oh
pair_coeff  5  5   0.0047  0.537924646013 # ho

bond_coeff  1  361.80  1.105  # c-h5
bond_coeff  2  652.57  1.218  # c=o
bond_coeff  3  383.13  1.351  # c-oh
bond_coeff  4  563.51  0.973  # o-h

angle_coeff  1   51.617  106.550  # c-oh-ho
angle_coeff  2   65.930  123.650  # h5-c=o
angle_coeff  3   65.262  109.490  # h5-c-oh
angle_coeff  4  115.745  122.100  # o=c-oh

dihedral_coeff  1  1  2.3  2  180.0               # h5-c-oh-ho
dihedral_coeff  2  2  2.3  2  180.0  1.9  1  0.0  # o=c-oh-ho

                              #  h5
                              #  |
improper_coeff  1  10.5 -1 2  #  c
                              # / \
                              # o  oh

#####################-----formate-----###########################################

angle_coeff  5   118.817 130.250  # o-c-o

                              #  h5
                              #  |
improper_coeff  2  10.5 -1 2  #  c
                              # / \
                              # o  o

#####################-----magnetite-----#########################################

mass  6   55.845   # Iron(II)
mass  7   55.845   # Iron(III)
mass  8   15.9994  # Bridging oxygen
mass  9   15.9994  # Hydroxyl oxygen
mass  10   1.008   # Hydroxyl hydrogen

pair_coeff  6  6   9.0298e-07  4.90620  # fe2
pair_coeff  7  7   9.0298e-07  4.90620  # fe3
pair_coeff  8  8   0.1554      3.16554  # ob
pair_coeff  9  9   0.1554      3.16554  # oh
pair_coeff  10 10  0.0         0.0      # ho

bond_coeff  5  554.1349  1.0   # oh-ho
bond_coeff  6    0.0     2.08  # fe-oh (dummy bond)

angle_coeff  6   30.0  109.470  # fe-oh-ho

##################################################################################

group Felayer molecule 101 100 102
324 atoms in group Felayer
group Fe type 6 7
1818 atoms in group Fe
group swpFe intersect Fe Felayer
108 atoms in group swpFe

label minimize_temp

  variable ftemp equal v_temp

  # Electrostatic relaxation
  fix swp swpFe atom/swap 1 1 ${rand} ${temp} ke no types 6 7
  fix swp swpFe atom/swap 1 1 855824 ${temp} ke no types 6 7
  fix swp swpFe atom/swap 1 1 855824 50000 ke no types 6 7
  thermo 100
  thermo_style custom step v_ftemp pe f_swp[1] f_swp[2]
  run ${nsteps}
  run 972
WARNING: No fixes with time integration, atoms won't move (../verlet.cpp:60)
PPPM initialization ...
  using 12-bit tables for long-range coulomb (../kspace.cpp:340)
  G vector (1/distance) = 0.29499995
  grid = 45 45 250
  stencil order = 5
  estimated absolute RMS force accuracy = 0.00038527262
  estimated relative force accuracy = 1.160237e-06
  using double precision KISS FFT
  3d grid and FFT values/proc = 554040 378675
  generated 45 of 45 mixed pair_coeff terms from arithmetic mixing rule
Neighbor list info ...
  update every 1 steps, delay 0 steps, check yes
  max neighbors/atom: 2000, page size: 100000
  master list distance cutoff = 14
  ghost atom cutoff = 14
  binsize = 7, bins = 4 4 14
  1 neighbor lists, perpetual/occasional/extra = 1 0 0
  (1) pair lj/cut/coul/long, perpetual
      attributes: half, newton on
      pair build: half/bin/newton
      stencil: half/bin/3d
      bin: standard
Per MPI rank memory allocation (min/avg/max) = 24.35 | 35.11 | 63.71 Mbytes
Step v_ftemp PotEng f_swp[1] f_swp[2] 
       0        50000   -783964.83            0            0 
     100        50000   -784854.34          100           71 
     200        50000   -784595.48          200          142 
     300        50000   -784092.28          300          203 
     400        50000   -784439.45          400          269 
     500        50000   -784141.72          500          339 
     600        50000   -784483.97          600          396 
     700        50000   -784017.18          700          465 
     800        50000   -784415.67          800          536 
     900        50000   -785268.99          900          606 
     972        50000   -784792.39          972          652 
Loop time of 261.576 on 4 procs for 972 steps with 4311 atoms

Performance: 0.161 ns/day, 149.506 hours/ns, 3.716 timesteps/s
93.6% CPU use with 4 MPI tasks x no OpenMP threads

MPI task timing breakdown:
Section |  min time  |  avg time  |  max time  |%varavg| %total
---------------------------------------------------------------
Pair    | 2.7207     | 7.1333     | 10.6       | 124.0 |  2.73
Bond    | 0.0014941  | 0.0028977  | 0.0068933  |   4.3 |  0.00
Kspace  | 62.836     | 66.301     | 70.721     |  40.7 | 25.35
Neigh   | 16.535     | 16.566     | 16.603     |   0.7 |  6.33
Comm    | 0.61092    | 0.67207    | 0.73511    |   6.1 |  0.26
Output  | 0.00019444 | 0.00048401 | 0.0011477  |   0.0 |  0.00
Modify  | 170.85     | 170.88     | 170.9      |   0.2 | 65.33
Other   |            | 0.02441    |            |       |  0.01

Nlocal:        1077.75 ave        1494 max         657 min
Histogram: 1 1 0 0 0 0 0 0 1 1
Nghost:        8908.75 ave       11946 max        5684 min
Histogram: 1 1 0 0 0 0 0 0 0 2
Neighs:         536036 ave      798165 max      198523 min
Histogram: 1 0 0 1 0 0 0 0 0 2

Total # of neighbors = 2144145
Ave neighs/atom = 497.36604
Ave special neighs/atom = 0.029227557
Neighbor list builds = 1944
Dangerous builds = 0

  unfix swp
  thermo_style custom step temp pe

next temp
jump SELF minimize_temp

  variable ftemp equal v_temp

  # Electrostatic relaxation
  fix swp swpFe atom/swap 1 1 ${rand} ${temp} ke no types 6 7
  fix swp swpFe atom/swap 1 1 710414 ${temp} ke no types 6 7
  fix swp swpFe atom/swap 1 1 710414 45000 ke no types 6 7
  thermo 100
  thermo_style custom step v_ftemp pe f_swp[1] f_swp[2]
  run ${nsteps}
  run 972
WARNING: No fixes with time integration, atoms won't move (../verlet.cpp:60)
PPPM initialization ...
  using 12-bit tables for long-range coulomb (../kspace.cpp:340)
  G vector (1/distance) = 0.29499995
  grid = 45 45 250
  stencil order = 5
  estimated absolute RMS force accuracy = 0.00038527262
  estimated relative force accuracy = 1.160237e-06
  using double precision KISS FFT
  3d grid and FFT values/proc = 554040 378675
  generated 45 of 45 mixed pair_coeff terms from arithmetic mixing rule
Per MPI rank memory allocation (min/avg/max) = 24.35 | 35.11 | 63.71 Mbytes
Step v_ftemp PotEng f_swp[1] f_swp[2] 
     972        45000   -784792.39            0            0 
    1000        45000   -784855.62           28           16 
    1100        45000   -784868.59          128           78 
    1200        45000   -784649.34          228          140 
    1300        45000   -784454.28          328          208 
    1400        45000   -785080.74          428          260 
    1500        45000      -785150          528          324 
    1600        45000   -785089.76          628          393 
    1700        45000   -784352.45          728          459 
    1800        45000   -784406.41          828          533 
    1900        45000   -784888.39          928          598 
    1944        45000   -785248.82          972          626 
Loop time of 282.975 on 4 procs for 972 steps with 4311 atoms

Performance: 0.148 ns/day, 161.737 hours/ns, 3.435 timesteps/s
93.2% CPU use with 4 MPI tasks x no OpenMP threads

MPI task timing breakdown:
Section |  min time  |  avg time  |  max time  |%varavg| %total
---------------------------------------------------------------
Pair    | 2.8506     | 7.4536     | 11.086     | 126.5 |  2.63
Bond    | 0.0013094  | 0.0071953  | 0.023943   |  11.4 |  0.00
Kspace  | 67.506     | 71.14      | 75.732     |  40.9 | 25.14
Neigh   | 17.189     | 17.219     | 17.26      |   0.7 |  6.08
Comm    | 0.48946    | 0.55552    | 0.5985     |   6.2 |  0.20
Output  | 0.00027115 | 0.00070168 | 0.0017344  |   0.0 |  0.00
Modify  | 186.55     | 186.57     | 186.6      |   0.1 | 65.93
Other   |            | 0.02667    |            |       |  0.01

Nlocal:        1077.75 ave        1494 max         657 min
Histogram: 1 1 0 0 0 0 0 0 1 1
Nghost:        8908.75 ave       11946 max        5684 min
Histogram: 1 1 0 0 0 0 0 0 0 2
Neighs:         536036 ave      798165 max      198523 min
Histogram: 1 0 0 1 0 0 0 0 0 2

Total # of neighbors = 2144145
Ave neighs/atom = 497.36604
Ave special neighs/atom = 0.029227557
Neighbor list builds = 1944
Dangerous builds = 0

  unfix swp
  thermo_style custom step temp pe

next temp
jump SELF minimize_temp

  variable ftemp equal v_temp

  # Electrostatic relaxation
  fix swp swpFe atom/swap 1 1 ${rand} ${temp} ke no types 6 7
  fix swp swpFe atom/swap 1 1 755762 ${temp} ke no types 6 7
  fix swp swpFe atom/swap 1 1 755762 40500 ke no types 6 7
  thermo 100
  thermo_style custom step v_ftemp pe f_swp[1] f_swp[2]
  run ${nsteps}
  run 972
WARNING: No fixes with time integration, atoms won't move (../verlet.cpp:60)
PPPM initialization ...
  using 12-bit tables for long-range coulomb (../kspace.cpp:340)
  G vector (1/distance) = 0.29499995
  grid = 45 45 250
  stencil order = 5
  estimated absolute RMS force accuracy = 0.00038527262
  estimated relative force accuracy = 1.160237e-06
  using double precision KISS FFT
  3d grid and FFT values/proc = 554040 378675
  generated 45 of 45 mixed pair_coeff terms from arithmetic mixing rule
Per MPI rank memory allocation (min/avg/max) = 24.35 | 35.11 | 63.71 Mbytes
Step v_ftemp PotEng f_swp[1] f_swp[2] 
    1944        40500   -785248.82            0            0 
    2000        40500   -785014.82           56           33 
    2100        40500   -784820.21          156           92 
    2200        40500   -785108.83          256          151 
    2300        40500   -785003.67          356          215 
    2400        40500    -785017.8          456          273 
    2500        40500    -784788.3          556          324 
    2600        40500   -785304.29          656          385 
    2700        40500   -785124.73          756          443 
    2800        40500   -785112.46          856          503 
    2900        40500   -784662.51          956          561 
    2916        40500    -784619.4          972          571 
Loop time of 281.785 on 4 procs for 972 steps with 4311 atoms

Performance: 0.149 ns/day, 161.057 hours/ns, 3.449 timesteps/s
93.1% CPU use with 4 MPI tasks x no OpenMP threads

MPI task timing breakdown:
Section |  min time  |  avg time  |  max time  |%varavg| %total
---------------------------------------------------------------
Pair    | 2.8557     | 7.5656     | 11.334     | 129.2 |  2.68
Bond    | 0.0017156  | 0.0034518  | 0.008265   |   4.7 |  0.00
Kspace  | 67.23      | 71.017     | 75.727     |  42.3 | 25.20
Neigh   | 17.371     | 17.399     | 17.426     |   0.5 |  6.17
Comm    | 0.60397    | 0.64799    | 0.68712    |   4.4 |  0.23
Output  | 0.00022062 | 0.00056135 | 0.0014042  |   0.0 |  0.00
Modify  | 185.11     | 185.13     | 185.16     |   0.1 | 65.70
Other   |            | 0.02593    |            |       |  0.01

Nlocal:        1077.75 ave        1494 max         657 min
Histogram: 1 1 0 0 0 0 0 0 1 1
Nghost:        8908.75 ave       11946 max        5684 min
Histogram: 1 1 0 0 0 0 0 0 0 2
Neighs:         536036 ave      798165 max      198523 min
Histogram: 1 0 0 1 0 0 0 0 0 2

Total # of neighbors = 2144145
Ave neighs/atom = 497.36604
Ave special neighs/atom = 0.029227557
Neighbor list builds = 1944
Dangerous builds = 0

  unfix swp
  thermo_style custom step temp pe

next temp
jump SELF minimize_temp

  variable ftemp equal v_temp

  # Electrostatic relaxation
  fix swp swpFe atom/swap 1 1 ${rand} ${temp} ke no types 6 7
  fix swp swpFe atom/swap 1 1 4574249 ${temp} ke no types 6 7
  fix swp swpFe atom/swap 1 1 4574249 36450 ke no types 6 7
  thermo 100
  thermo_style custom step v_ftemp pe f_swp[1] f_swp[2]
  run ${nsteps}
  run 972
WARNING: No fixes with time integration, atoms won't move (../verlet.cpp:60)
PPPM initialization ...
  using 12-bit tables for long-range coulomb (../kspace.cpp:340)
  G vector (1/distance) = 0.29499995
  grid = 45 45 250
  stencil order = 5
  estimated absolute RMS force accuracy = 0.00038527262
  estimated relative force accuracy = 1.160237e-06
  using double precision KISS FFT
  3d grid and FFT values/proc = 554040 378675
  generated 45 of 45 mixed pair_coeff terms from arithmetic mixing rule
Per MPI rank memory allocation (min/avg/max) = 24.35 | 35.11 | 63.71 Mbytes
Step v_ftemp PotEng f_swp[1] f_swp[2] 
    2916        36450    -784619.4            0            0 
    3000        36450   -785229.16           84           46 
    3100        36450   -784890.49          184           98 
    3200        36450   -785079.08          284          148 
    3300        36450   -785294.36          384          204 
    3400        36450   -784798.76          484          260 
    3500        36450   -785270.22          584          309 
    3600        36450   -784672.37          684          368 
    3700        36450   -785048.32          784          426 
    3800        36450   -784816.71          884          488 
    3888        36450   -784860.08          972          536 
Loop time of 340.789 on 4 procs for 972 steps with 4311 atoms

Performance: 0.123 ns/day, 194.781 hours/ns, 2.852 timesteps/s
85.5% CPU use with 4 MPI tasks x no OpenMP threads

MPI task timing breakdown:
Section |  min time  |  avg time  |  max time  |%varavg| %total
---------------------------------------------------------------
Pair    | 3.0372     | 8.2087     | 12.233     | 135.8 |  2.41
Bond    | 0.0017886  | 0.0036147  | 0.0084825  |   4.7 |  0.00
Kspace  | 79.499     | 83.57      | 88.672     |  42.7 | 24.52
Neigh   | 21.711     | 21.756     | 21.779     |   0.6 |  6.38
Comm    | 1.6902     | 1.9186     | 2.0944     |  12.3 |  0.56
Output  | 0.044093   | 0.047362   | 0.049091   |   0.9 |  0.01
Modify  | 225.13     | 225.26     | 225.41     |   0.9 | 66.10
Other   |            | 0.02855    |            |       |  0.01

Nlocal:        1077.75 ave        1494 max         657 min
Histogram: 1 1 0 0 0 0 0 0 1 1
Nghost:        8908.75 ave       11946 max        5684 min
Histogram: 1 1 0 0 0 0 0 0 0 2
Neighs:         536036 ave      798165 max      198523 min
Histogram: 1 0 0 1 0 0 0 0 0 2

Total # of neighbors = 2144145
Ave neighs/atom = 497.36604
Ave special neighs/atom = 0.029227557
Neighbor list builds = 1944
Dangerous builds = 0

  unfix swp
  thermo_style custom step temp pe

next temp
jump SELF minimize_temp

  variable ftemp equal v_temp

  # Electrostatic relaxation
  fix swp swpFe atom/swap 1 1 ${rand} ${temp} ke no types 6 7
  fix swp swpFe atom/swap 1 1 5979850 ${temp} ke no types 6 7
  fix swp swpFe atom/swap 1 1 5979850 32805 ke no types 6 7
  thermo 100
  thermo_style custom step v_ftemp pe f_swp[1] f_swp[2]
  run ${nsteps}
  run 972
WARNING: No fixes with time integration, atoms won't move (../verlet.cpp:60)
PPPM initialization ...
  using 12-bit tables for long-range coulomb (../kspace.cpp:340)
  G vector (1/distance) = 0.29499995
  grid = 45 45 250
  stencil order = 5
  estimated absolute RMS force accuracy = 0.00038527262
  estimated relative force accuracy = 1.160237e-06
  using double precision KISS FFT
  3d grid and FFT values/proc = 554040 378675
  generated 45 of 45 mixed pair_coeff terms from arithmetic mixing rule
Per MPI rank memory allocation (min/avg/max) = 24.35 | 35.11 | 63.71 Mbytes
Step v_ftemp PotEng f_swp[1] f_swp[2] 
    3888        32805   -784860.08            0            0 
    3900        32805   -784917.09           12            6 
    4000        32805    -785131.1          112           48 
    4100        32805   -785101.91          212          104 
    4200        32805   -785112.55          312          159 
    4300        32805   -784994.64          412          211 
    4400        32805   -785090.91          512          264 
    4500        32805   -784846.94          612          309 
    4600        32805   -784928.94          712          375 
    4700        32805   -784774.26          812          433 
    4800        32805   -784562.24          912          484 
    4860        32805   -784480.68          972          518 
Loop time of 290.251 on 4 procs for 972 steps with 4311 atoms

Performance: 0.145 ns/day, 165.896 hours/ns, 3.349 timesteps/s
91.6% CPU use with 4 MPI tasks x no OpenMP threads

MPI task timing breakdown:
Section |  min time  |  avg time  |  max time  |%varavg| %total
---------------------------------------------------------------
Pair    | 2.9303     | 7.7164     | 11.425     | 129.0 |  2.66
Bond    | 0.001896   | 0.0037114  | 0.0087007  |   4.7 |  0.00
Kspace  | 69.465     | 73.173     | 77.948     |  41.9 | 25.21
Neigh   | 17.862     | 17.897     | 17.937     |   0.8 |  6.17
Comm    | 0.54386    | 0.59515    | 0.63547    |   4.8 |  0.21
Output  | 0.00026351 | 0.00064835 | 0.0015955  |   0.0 |  0.00
Modify  | 190.82     | 190.84     | 190.85     |   0.1 | 65.75
Other   |            | 0.02794    |            |       |  0.01

Nlocal:        1077.75 ave        1494 max         657 min
Histogram: 1 1 0 0 0 0 0 0 1 1
Nghost:        8908.75 ave       11946 max        5684 min
Histogram: 1 1 0 0 0 0 0 0 0 2
Neighs:         536036 ave      798165 max      198523 min
Histogram: 1 0 0 1 0 0 0 0 0 2

Total # of neighbors = 2144145
Ave neighs/atom = 497.36604
Ave special neighs/atom = 0.029227557
Neighbor list builds = 1944
Dangerous builds = 0

  unfix swp
  thermo_style custom step temp pe

next temp
jump SELF minimize_temp

  variable ftemp equal v_temp

  # Electrostatic relaxation
  fix swp swpFe atom/swap 1 1 ${rand} ${temp} ke no types 6 7
  fix swp swpFe atom/swap 1 1 2707118 ${temp} ke no types 6 7
  fix swp swpFe atom/swap 1 1 2707118 29524 ke no types 6 7
  thermo 100
  thermo_style custom step v_ftemp pe f_swp[1] f_swp[2]
  run ${nsteps}
  run 972
WARNING: No fixes with time integration, atoms won't move (../verlet.cpp:60)
PPPM initialization ...
  using 12-bit tables for long-range coulomb (../kspace.cpp:340)
  G vector (1/distance) = 0.29499995
  grid = 45 45 250
  stencil order = 5
  estimated absolute RMS force accuracy = 0.00038527262
  estimated relative force accuracy = 1.160237e-06
  using double precision KISS FFT
  3d grid and FFT values/proc = 554040 378675
  generated 45 of 45 mixed pair_coeff terms from arithmetic mixing rule
Per MPI rank memory allocation (min/avg/max) = 24.35 | 35.11 | 63.71 Mbytes
Step v_ftemp PotEng f_swp[1] f_swp[2] 
    4860        29524   -784480.68            0            0 
    4900        29524   -785019.76           40           15 
    5000        29524   -785225.49          140           54 
    5100        29524   -785036.17          240          107 
    5200        29524   -784759.22          340          156 
    5300        29524   -785273.33          440          197 
    5400        29524   -785126.14          540          244 
    5500        29524   -785019.44          640          294 
    5600        29524   -784720.12          740          348 
    5700        29524   -785346.96          840          393 
    5800        29524   -785279.78          940          446 
    5832        29524   -785179.51          972          463 
Loop time of 287.939 on 4 procs for 972 steps with 4311 atoms

Performance: 0.146 ns/day, 164.574 hours/ns, 3.376 timesteps/s
91.1% CPU use with 4 MPI tasks x no OpenMP threads

MPI task timing breakdown:
Section |  min time  |  avg time  |  max time  |%varavg| %total
---------------------------------------------------------------
Pair    | 2.9565     | 7.7986     | 11.632     | 129.8 |  2.71
Bond    | 0.0018658  | 0.0037899  | 0.008896   |   4.8 |  0.00
Kspace  | 67.326     | 71.185     | 76.043     |  43.1 | 24.72
Neigh   | 18.338     | 18.373     | 18.399     |   0.6 |  6.38
Comm    | 0.57843    | 0.64208    | 0.70559    |   7.5 |  0.22
Output  | 0.00023224 | 0.00045534 | 0.00091065 |   0.0 |  0.00
Modify  | 189.87     | 189.91     | 189.95     |   0.2 | 65.95
Other   |            | 0.02909    |            |       |  0.01

Nlocal:        1077.75 ave        1494 max         657 min
Histogram: 1 1 0 0 0 0 0 0 1 1
Nghost:        8908.75 ave       11946 max        5684 min
Histogram: 1 1 0 0 0 0 0 0 0 2
Neighs:         536036 ave      798165 max      198523 min
Histogram: 1 0 0 1 0 0 0 0 0 2

Total # of neighbors = 2144145
Ave neighs/atom = 497.36604
Ave special neighs/atom = 0.029227557
Neighbor list builds = 1944
Dangerous builds = 0

  unfix swp
  thermo_style custom step temp pe

next temp
jump SELF minimize_temp

  variable ftemp equal v_temp

  # Electrostatic relaxation
  fix swp swpFe atom/swap 1 1 ${rand} ${temp} ke no types 6 7
  fix swp swpFe atom/swap 1 1 1165944 ${temp} ke no types 6 7
  fix swp swpFe atom/swap 1 1 1165944 26571 ke no types 6 7
  thermo 100
  thermo_style custom step v_ftemp pe f_swp[1] f_swp[2]
  run ${nsteps}
  run 972
WARNING: No fixes with time integration, atoms won't move (../verlet.cpp:60)
PPPM initialization ...
  using 12-bit tables for long-range coulomb (../kspace.cpp:340)
  G vector (1/distance) = 0.29499995
  grid = 45 45 250
  stencil order = 5
  estimated absolute RMS force accuracy = 0.00038527262
  estimated relative force accuracy = 1.160237e-06
  using double precision KISS FFT
  3d grid and FFT values/proc = 554040 378675
  generated 45 of 45 mixed pair_coeff terms from arithmetic mixing rule
Per MPI rank memory allocation (min/avg/max) = 24.35 | 35.11 | 63.71 Mbytes
Step v_ftemp PotEng f_swp[1] f_swp[2] 
    5832        26571   -785179.51            0            0 
    5900        26571    -785431.2           68           29 
    6000        26571   -784739.27          168           84 
    6100        26571   -785433.89          268          125 
    6200        26571   -785066.77          368          174 
    6300        26571   -784992.57          468          233 
    6400        26571   -785085.63          568          283 
    6500        26571   -785340.86          668          325 
    6600        26571   -784843.05          768          379 
    6700        26571   -785202.64          868          423 
    6800        26571    -785332.6          968          471 
    6804        26571   -785348.02          972          474 
Loop time of 289.519 on 4 procs for 972 steps with 4311 atoms

Performance: 0.145 ns/day, 165.477 hours/ns, 3.357 timesteps/s
90.4% CPU use with 4 MPI tasks x no OpenMP threads

MPI task timing breakdown:
Section |  min time  |  avg time  |  max time  |%varavg| %total
---------------------------------------------------------------
Pair    | 3.0616     | 7.98       | 11.699     | 128.0 |  2.76
Bond    | 0.0019643  | 0.0042076  | 0.0098971  |   5.1 |  0.00
Kspace  | 68.021     | 71.735     | 76.651     |  42.7 | 24.78
Neigh   | 18.364     | 18.408     | 18.472     |   0.9 |  6.36
Comm    | 0.59184    | 0.67753    | 0.75909    |   7.2 |  0.23
Output  | 0.00024341 | 0.00049699 | 0.0010568  |   0.0 |  0.00
Modify  | 190.65     | 190.68     | 190.7      |   0.1 | 65.86
Other   |            | 0.03167    |            |       |  0.01

Nlocal:        1077.75 ave        1494 max         657 min
Histogram: 1 1 0 0 0 0 0 0 1 1
Nghost:        8908.75 ave       11946 max        5684 min
Histogram: 1 1 0 0 0 0 0 0 0 2
Neighs:         536036 ave      798165 max      198523 min
Histogram: 1 0 0 1 0 0 0 0 0 2

Total # of neighbors = 2144145
Ave neighs/atom = 497.36604
Ave special neighs/atom = 0.029227557
Neighbor list builds = 1944
Dangerous builds = 0

  unfix swp
  thermo_style custom step temp pe

next temp
jump SELF minimize_temp

  variable ftemp equal v_temp

  # Electrostatic relaxation
  fix swp swpFe atom/swap 1 1 ${rand} ${temp} ke no types 6 7
  fix swp swpFe atom/swap 1 1 3631288 ${temp} ke no types 6 7
  fix swp swpFe atom/swap 1 1 3631288 23913 ke no types 6 7
  thermo 100
  thermo_style custom step v_ftemp pe f_swp[1] f_swp[2]
  run ${nsteps}
  run 972
WARNING: No fixes with time integration, atoms won't move (../verlet.cpp:60)
PPPM initialization ...
  using 12-bit tables for long-range coulomb (../kspace.cpp:340)
  G vector (1/distance) = 0.29499995
  grid = 45 45 250
  stencil order = 5
  estimated absolute RMS force accuracy = 0.00038527262
  estimated relative force accuracy = 1.160237e-06
  using double precision KISS FFT
  3d grid and FFT values/proc = 554040 378675
  generated 45 of 45 mixed pair_coeff terms from arithmetic mixing rule
Per MPI rank memory allocation (min/avg/max) = 24.35 | 35.11 | 63.71 Mbytes
Step v_ftemp PotEng f_swp[1] f_swp[2] 
    6804        23913   -785348.02            0            0 
    6900        23913    -785303.4           96           43 
    7000        23913   -784958.57          196           88 
    7100        23913   -785260.03          296          143 
    7200        23913   -785193.95          396          189 
    7300        23913   -785559.77          496          235 
    7400        23913   -785212.41          596          278 
    7500        23913   -785437.74          696          319 
    7600        23913   -785128.31          796          355 
    7700        23913    -785491.6          896          404 
    7776        23913   -785507.59          972          432 
Loop time of 316.85 on 4 procs for 972 steps with 4311 atoms

Performance: 0.133 ns/day, 181.099 hours/ns, 3.068 timesteps/s
87.2% CPU use with 4 MPI tasks x no OpenMP threads

MPI task timing breakdown:
Section |  min time  |  avg time  |  max time  |%varavg| %total
---------------------------------------------------------------
Pair    | 3.034      | 8.1481     | 12.035     | 132.5 |  2.57
Bond    | 0.0019108  | 0.0076565  | 0.017271   |   7.2 |  0.00
Kspace  | 74.547     | 78.4       | 83.533     |  42.7 | 24.74
Neigh   | 20.168     | 20.215     | 20.301     |   1.2 |  6.38
Comm    | 1.1006     | 1.2399     | 1.3921     |   9.3 |  0.39
Output  | 0.00051779 | 0.00066289 | 0.00083584 |   0.0 |  0.00
Modify  | 208.71     | 208.81     | 208.88     |   0.4 | 65.90
Other   |            | 0.03271    |            |       |  0.01

Nlocal:        1077.75 ave        1494 max         657 min
Histogram: 1 1 0 0 0 0 0 0 1 1
Nghost:        8908.75 ave       11946 max        5684 min
Histogram: 1 1 0 0 0 0 0 0 0 2
Neighs:         536036 ave      798165 max      198523 min
Histogram: 1 0 0 1 0 0 0 0 0 2

Total # of neighbors = 2144145
Ave neighs/atom = 497.36604
Ave special neighs/atom = 0.029227557
Neighbor list builds = 1944
Dangerous builds = 0

  unfix swp
  thermo_style custom step temp pe

next temp
jump SELF minimize_temp

  variable ftemp equal v_temp

  # Electrostatic relaxation
  fix swp swpFe atom/swap 1 1 ${rand} ${temp} ke no types 6 7
  fix swp swpFe atom/swap 1 1 7952271 ${temp} ke no types 6 7
  fix swp swpFe atom/swap 1 1 7952271 21521 ke no types 6 7
  thermo 100
  thermo_style custom step v_ftemp pe f_swp[1] f_swp[2]
  run ${nsteps}
  run 972
WARNING: No fixes with time integration, atoms won't move (../verlet.cpp:60)
PPPM initialization ...
  using 12-bit tables for long-range coulomb (../kspace.cpp:340)
  G vector (1/distance) = 0.29499995
  grid = 45 45 250
  stencil order = 5
  estimated absolute RMS force accuracy = 0.00038527262
  estimated relative force accuracy = 1.160237e-06
  using double precision KISS FFT
  3d grid and FFT values/proc = 554040 378675
  generated 45 of 45 mixed pair_coeff terms from arithmetic mixing rule
Per MPI rank memory allocation (min/avg/max) = 24.35 | 35.11 | 63.71 Mbytes
Step v_ftemp PotEng f_swp[1] f_swp[2] 
    7776        21521   -785507.59            0            0 
    7800        21521    -785477.5           24           15 
    7900        21521      -785512          124           43 
    8000        21521   -785606.48          224           75 
    8100        21521   -785518.86          324          110 
    8200        21521   -785304.32          424          151 
    8300        21521   -785500.88          524          193 
    8400        21521   -785316.04          624          233 
    8500        21521   -784986.19          724          267 
    8600        21521   -785266.91          824          305 
    8700        21521   -785402.58          924          337 
    8748        21521   -785356.55          972          358 
Loop time of 289.599 on 4 procs for 972 steps with 4311 atoms

Performance: 0.145 ns/day, 165.523 hours/ns, 3.356 timesteps/s
90.9% CPU use with 4 MPI tasks x no OpenMP threads

MPI task timing breakdown:
Section |  min time  |  avg time  |  max time  |%varavg| %total
---------------------------------------------------------------
Pair    | 3.0232     | 7.9712     | 11.763     | 131.9 |  2.75
Bond    | 0.0019334  | 0.0040756  | 0.009675   |   5.1 |  0.00
Kspace  | 67.548     | 71.356     | 76.303     |  44.2 | 24.64
Neigh   | 18.486     | 18.528     | 18.572     |   0.7 |  6.40
Comm    | 0.56439    | 0.63796    | 0.68112    |   5.7 |  0.22
Output  | 0.00028456 | 0.00052417 | 0.0010659  |   0.0 |  0.00
Modify  | 191.05     | 191.07     | 191.09     |   0.1 | 65.98
Other   |            | 0.03114    |            |       |  0.01

Nlocal:        1077.75 ave        1494 max         657 min
Histogram: 1 1 0 0 0 0 0 0 1 1
Nghost:        8908.75 ave       11946 max        5684 min
Histogram: 1 1 0 0 0 0 0 0 0 2
Neighs:         536036 ave      798165 max      198523 min
Histogram: 1 0 0 1 0 0 0 0 0 2

Total # of neighbors = 2144145
Ave neighs/atom = 497.36604
Ave special neighs/atom = 0.029227557
Neighbor list builds = 1944
Dangerous builds = 0

  unfix swp
  thermo_style custom step temp pe

next temp
jump SELF minimize_temp

  variable ftemp equal v_temp

  # Electrostatic relaxation
  fix swp swpFe atom/swap 1 1 ${rand} ${temp} ke no types 6 7
  fix swp swpFe atom/swap 1 1 185888 ${temp} ke no types 6 7
  fix swp swpFe atom/swap 1 1 185888 19368 ke no types 6 7
  thermo 100
  thermo_style custom step v_ftemp pe f_swp[1] f_swp[2]
  run ${nsteps}
  run 972
WARNING: No fixes with time integration, atoms won't move (../verlet.cpp:60)
PPPM initialization ...
  using 12-bit tables for long-range coulomb (../kspace.cpp:340)
  G vector (1/distance) = 0.29499995
  grid = 45 45 250
  stencil order = 5
  estimated absolute RMS force accuracy = 0.00038527262
  estimated relative force accuracy = 1.160237e-06
  using double precision KISS FFT
  3d grid and FFT values/proc = 554040 378675
  generated 45 of 45 mixed pair_coeff terms from arithmetic mixing rule
Per MPI rank memory allocation (min/avg/max) = 24.35 | 35.11 | 63.71 Mbytes
Step v_ftemp PotEng f_swp[1] f_swp[2] 
    8748        19368   -785356.55            0            0 
    8800        19368   -785229.45           52           21 
    8900        19368    -784944.3          152           59 
    9000        19368   -785199.63          252           91 
    9100        19368   -785706.29          352          130 
    9200        19368   -785415.32          452          168 
    9300        19368   -785656.37          552          209 
    9400        19368   -785542.66          652          243 
    9500        19368   -785493.02          752          286 
    9600        19368   -785277.62          852          321 
    9700        19368   -785427.64          952          353 
    9720        19368   -785511.43          972          362 
Loop time of 286.404 on 4 procs for 972 steps with 4311 atoms

Performance: 0.147 ns/day, 163.697 hours/ns, 3.394 timesteps/s
91.7% CPU use with 4 MPI tasks x no OpenMP threads

MPI task timing breakdown:
Section |  min time  |  avg time  |  max time  |%varavg| %total
---------------------------------------------------------------
Pair    | 2.9585     | 7.8678     | 11.725     | 131.6 |  2.75
Bond    | 0.001825   | 0.0040124  | 0.0098192  |   5.3 |  0.00
Kspace  | 66.874     | 70.752     | 75.66      |  43.9 | 24.70
Neigh   | 18.546     | 18.571     | 18.604     |   0.6 |  6.48
Comm    | 0.72659    | 0.76571    | 0.81569    |   4.4 |  0.27
Output  | 0.00028317 | 0.00058863 | 0.0012841  |   0.0 |  0.00
Modify  | 188.39     | 188.41     | 188.43     |   0.1 | 65.79
Other   |            | 0.03069    |            |       |  0.01

Nlocal:        1077.75 ave        1494 max         657 min
Histogram: 1 1 0 0 0 0 0 0 1 1
Nghost:        8908.75 ave       11946 max        5684 min
Histogram: 1 1 0 0 0 0 0 0 0 2
Neighs:         536036 ave      798165 max      198523 min
Histogram: 1 0 0 1 0 0 0 0 0 2

Total # of neighbors = 2144145
Ave neighs/atom = 497.36604
Ave special neighs/atom = 0.029227557
Neighbor list builds = 1944
Dangerous builds = 0

  unfix swp
  thermo_style custom step temp pe

next temp
jump SELF minimize_temp

  variable ftemp equal v_temp

  # Electrostatic relaxation
  fix swp swpFe atom/swap 1 1 ${rand} ${temp} ke no types 6 7
  fix swp swpFe atom/swap 1 1 7935996 ${temp} ke no types 6 7
  fix swp swpFe atom/swap 1 1 7935996 17431 ke no types 6 7
  thermo 100
  thermo_style custom step v_ftemp pe f_swp[1] f_swp[2]
  run ${nsteps}
  run 972
WARNING: No fixes with time integration, atoms won't move (../verlet.cpp:60)
PPPM initialization ...
  using 12-bit tables for long-range coulomb (../kspace.cpp:340)
  G vector (1/distance) = 0.29499995
  grid = 45 45 250
  stencil order = 5
  estimated absolute RMS force accuracy = 0.00038527262
  estimated relative force accuracy = 1.160237e-06
  using double precision KISS FFT
  3d grid and FFT values/proc = 554040 378675
  generated 45 of 45 mixed pair_coeff terms from arithmetic mixing rule
Per MPI rank memory allocation (min/avg/max) = 24.35 | 35.11 | 63.71 Mbytes
Step v_ftemp PotEng f_swp[1] f_swp[2] 
    9720        17431   -785511.43            0            0 
    9800        17431   -785457.57           80           27 
    9900        17431   -785252.89          180           63 
   10000        17431   -785434.91          280           97 
   10100        17431   -785605.72          380          129 
   10200        17431   -785669.13          480          159 
   10300        17431   -785676.89          580          195 
   10400        17431   -785590.19          680          226 
   10500        17431   -785341.16          780          254 
   10600        17431   -785648.75          880          289 
   10692        17431   -785612.28          972          312 
Loop time of 290.339 on 4 procs for 972 steps with 4311 atoms

Performance: 0.145 ns/day, 165.946 hours/ns, 3.348 timesteps/s
91.8% CPU use with 4 MPI tasks x no OpenMP threads

MPI task timing breakdown:
Section |  min time  |  avg time  |  max time  |%varavg| %total
---------------------------------------------------------------
Pair    | 2.8837     | 7.6537     | 11.25      | 129.3 |  2.64
Bond    | 0.0015099  | 0.0033094  | 0.0079219  |   4.6 |  0.00
Kspace  | 69.357     | 72.922     | 77.716     |  42.1 | 25.12
Neigh   | 17.988     | 18.044     | 18.103     |   1.0 |  6.21
Comm    | 0.68576    | 0.74489    | 0.81784    |   6.7 |  0.26
Output  | 0.00019439 | 0.00040471 | 0.00087814 |   0.0 |  0.00
Modify  | 190.91     | 190.94     | 191        |   0.2 | 65.77
Other   |            | 0.02693    |            |       |  0.01

Nlocal:        1077.75 ave        1494 max         657 min
Histogram: 1 1 0 0 0 0 0 0 1 1
Nghost:        8908.75 ave       11946 max        5684 min
Histogram: 1 1 0 0 0 0 0 0 0 2
Neighs:         536036 ave      798165 max      198523 min
Histogram: 1 0 0 1 0 0 0 0 0 2

Total # of neighbors = 2144145
Ave neighs/atom = 497.36604
Ave special neighs/atom = 0.029227557
Neighbor list builds = 1944
Dangerous builds = 0

  unfix swp
  thermo_style custom step temp pe

next temp
jump SELF minimize_temp

  variable ftemp equal v_temp

  # Electrostatic relaxation
  fix swp swpFe atom/swap 1 1 ${rand} ${temp} ke no types 6 7
  fix swp swpFe atom/swap 1 1 473855 ${temp} ke no types 6 7
  fix swp swpFe atom/swap 1 1 473855 15687 ke no types 6 7
  thermo 100
  thermo_style custom step v_ftemp pe f_swp[1] f_swp[2]
  run ${nsteps}
  run 972
WARNING: No fixes with time integration, atoms won't move (../verlet.cpp:60)
PPPM initialization ...
  using 12-bit tables for long-range coulomb (../kspace.cpp:340)
  G vector (1/distance) = 0.29499995
  grid = 45 45 250
  stencil order = 5
  estimated absolute RMS force accuracy = 0.00038527262
  estimated relative force accuracy = 1.160237e-06
  using double precision KISS FFT
  3d grid and FFT values/proc = 554040 378675
  generated 45 of 45 mixed pair_coeff terms from arithmetic mixing rule
Per MPI rank memory allocation (min/avg/max) = 24.35 | 35.11 | 63.71 Mbytes
Step v_ftemp PotEng f_swp[1] f_swp[2] 
   10692        15687   -785612.28            0            0 
   10700        15687   -785576.49            8            4 
   10800        15687   -785782.34          108           41 
   10900        15687   -785829.42          208           68 
   11000        15687   -785499.79          308           96 
   11100        15687    -785606.4          408          129 
   11200        15687    -785807.7          508          169 
   11300        15687   -785566.67          608          192 
   11400        15687   -785705.09          708          215 
   11500        15687   -785469.25          808          248 
   11600        15687   -785578.36          908          277 
   11664        15687   -785784.16          972          295 
Loop time of 282.411 on 4 procs for 972 steps with 4311 atoms

Performance: 0.149 ns/day, 161.415 hours/ns, 3.442 timesteps/s
93.2% CPU use with 4 MPI tasks x no OpenMP threads

MPI task timing breakdown:
Section |  min time  |  avg time  |  max time  |%varavg| %total
---------------------------------------------------------------
Pair    | 2.8541     | 7.506      | 11.231     | 128.3 |  2.66
Bond    | 0.0016448  | 0.0032152  | 0.0076114  |   4.5 |  0.00
Kspace  | 68.816     | 72.553     | 77.216     |  41.3 | 25.69
Neigh   | 16.991     | 17.024     | 17.072     |   0.8 |  6.03
Comm    | 0.47407    | 0.5297     | 0.57234    |   5.6 |  0.19
Output  | 0.00022356 | 0.00053203 | 0.0013112  |   0.0 |  0.00
Modify  | 184.75     | 184.77     | 184.79     |   0.1 | 65.43
Other   |            | 0.02479    |            |       |  0.01

Nlocal:        1077.75 ave        1494 max         657 min
Histogram: 1 1 0 0 0 0 0 0 1 1
Nghost:        8908.75 ave       11946 max        5684 min
Histogram: 1 1 0 0 0 0 0 0 0 2
Neighs:         536036 ave      798165 max      198523 min
Histogram: 1 0 0 1 0 0 0 0 0 2

Total # of neighbors = 2144145
Ave neighs/atom = 497.36604
Ave special neighs/atom = 0.029227557
Neighbor list builds = 1944
Dangerous builds = 0

  unfix swp
  thermo_style custom step temp pe

next temp
jump SELF minimize_temp

  variable ftemp equal v_temp

  # Electrostatic relaxation
  fix swp swpFe atom/swap 1 1 ${rand} ${temp} ke no types 6 7
  fix swp swpFe atom/swap 1 1 7716369 ${temp} ke no types 6 7
  fix swp swpFe atom/swap 1 1 7716369 14118 ke no types 6 7
  thermo 100
  thermo_style custom step v_ftemp pe f_swp[1] f_swp[2]
  run ${nsteps}
  run 972
WARNING: No fixes with time integration, atoms won't move (../verlet.cpp:60)
PPPM initialization ...
  using 12-bit tables for long-range coulomb (../kspace.cpp:340)
  G vector (1/distance) = 0.29499995
  grid = 45 45 250
  stencil order = 5
  estimated absolute RMS force accuracy = 0.00038527262
  estimated relative force accuracy = 1.160237e-06
  using double precision KISS FFT
  3d grid and FFT values/proc = 554040 378675
  generated 45 of 45 mixed pair_coeff terms from arithmetic mixing rule
Per MPI rank memory allocation (min/avg/max) = 24.35 | 35.11 | 63.71 Mbytes
Step v_ftemp PotEng f_swp[1] f_swp[2] 
   11664        14118   -785784.16            0            0 
   11700        14118   -785608.43           36           10 
   11800        14118   -785706.55          136           39 
   11900        14118   -785710.16          236           71 
   12000        14118   -785850.66          336          101 
   12100        14118   -785479.84          436          135 
   12200        14118   -785555.22          536          165 
   12300        14118   -785675.98          636          201 
   12400        14118    -785499.6          736          226 
   12500        14118   -785635.38          836          255 
   12600        14118   -785653.15          936          277 
   12636        14118    -785740.4          972          285 
Loop time of 273.964 on 4 procs for 972 steps with 4311 atoms

Performance: 0.153 ns/day, 156.587 hours/ns, 3.548 timesteps/s
94.5% CPU use with 4 MPI tasks x no OpenMP threads

MPI task timing breakdown:
Section |  min time  |  avg time  |  max time  |%varavg| %total
---------------------------------------------------------------
Pair    | 2.7927     | 7.4226     | 11.04      | 128.5 |  2.71
Bond    | 0.0015287  | 0.0033253  | 0.0078214  |   4.5 |  0.00
Kspace  | 66.806     | 70.427     | 75.058     |  41.7 | 25.71
Neigh   | 16.448     | 16.475     | 16.513     |   0.6 |  6.01
Comm    | 0.41348    | 0.46088    | 0.49188    |   4.8 |  0.17
Output  | 0.00019883 | 0.00048847 | 0.0011737  |   0.0 |  0.00
Modify  | 179.14     | 179.15     | 179.16     |   0.1 | 65.39
Other   |            | 0.02197    |            |       |  0.01

Nlocal:        1077.75 ave        1494 max         657 min
Histogram: 1 1 0 0 0 0 0 0 1 1
Nghost:        8908.75 ave       11946 max        5684 min
Histogram: 1 1 0 0 0 0 0 0 0 2
Neighs:         536036 ave      798165 max      198523 min
Histogram: 1 0 0 1 0 0 0 0 0 2

Total # of neighbors = 2144145
Ave neighs/atom = 497.36604
Ave special neighs/atom = 0.029227557
Neighbor list builds = 1944
Dangerous builds = 0

  unfix swp
  thermo_style custom step temp pe

next temp
jump SELF minimize_temp

  variable ftemp equal v_temp

  # Electrostatic relaxation
  fix swp swpFe atom/swap 1 1 ${rand} ${temp} ke no types 6 7
  fix swp swpFe atom/swap 1 1 8487327 ${temp} ke no types 6 7
  fix swp swpFe atom/swap 1 1 8487327 12706 ke no types 6 7
  thermo 100
  thermo_style custom step v_ftemp pe f_swp[1] f_swp[2]
  run ${nsteps}
  run 972
WARNING: No fixes with time integration, atoms won't move (../verlet.cpp:60)
PPPM initialization ...
  using 12-bit tables for long-range coulomb (../kspace.cpp:340)
  G vector (1/distance) = 0.29499995
  grid = 45 45 250
  stencil order = 5
  estimated absolute RMS force accuracy = 0.00038527262
  estimated relative force accuracy = 1.160237e-06
  using double precision KISS FFT
  3d grid and FFT values/proc = 554040 378675
  generated 45 of 45 mixed pair_coeff terms from arithmetic mixing rule
Per MPI rank memory allocation (min/avg/max) = 24.35 | 35.11 | 63.71 Mbytes
Step v_ftemp PotEng f_swp[1] f_swp[2] 
   12636        12706    -785740.4            0            0 
   12700        12706   -785804.07           64           19 
   12800        12706   -785754.08          164           40 
   12900        12706   -785715.75          264           66 
   13000        12706   -785757.99          364           86 
   13100        12706   -785843.33          464          114 
   13200        12706   -785754.14          564          145 
   13300        12706   -785816.47          664          167 
   13400        12706   -785727.72          764          183 
   13500        12706    -785453.9          864          209 
   13600        12706   -785835.67          964          237 
   13608        12706   -785863.32          972          239 
Loop time of 281.943 on 4 procs for 972 steps with 4311 atoms

Performance: 0.149 ns/day, 161.147 hours/ns, 3.448 timesteps/s
92.2% CPU use with 4 MPI tasks x no OpenMP threads

MPI task timing breakdown:
Section |  min time  |  avg time  |  max time  |%varavg| %total
---------------------------------------------------------------
Pair    | 2.9851     | 7.8464     | 11.748     | 130.6 |  2.78
Bond    | 0.0020851  | 0.0041028  | 0.0095582  |   4.9 |  0.00
Kspace  | 66.697     | 70.606     | 75.469     |  43.6 | 25.04
Neigh   | 17.557     | 17.59      | 17.62      |   0.6 |  6.24
Comm    | 0.49812    | 0.53667    | 0.58596    |   4.8 |  0.19
Output  | 0.00022435 | 0.00054889 | 0.0013272  |   0.0 |  0.00
Modify  | 185.31     | 185.33     | 185.34     |   0.1 | 65.73
Other   |            | 0.03083    |            |       |  0.01

Nlocal:        1077.75 ave        1494 max         657 min
Histogram: 1 1 0 0 0 0 0 0 1 1
Nghost:        8908.75 ave       11946 max        5684 min
Histogram: 1 1 0 0 0 0 0 0 0 2
Neighs:         536036 ave      798165 max      198523 min
Histogram: 1 0 0 1 0 0 0 0 0 2

Total # of neighbors = 2144145
Ave neighs/atom = 497.36604
Ave special neighs/atom = 0.029227557
Neighbor list builds = 1944
Dangerous builds = 0

  unfix swp
  thermo_style custom step temp pe

next temp
jump SELF minimize_temp

  variable ftemp equal v_temp

  # Electrostatic relaxation
  fix swp swpFe atom/swap 1 1 ${rand} ${temp} ke no types 6 7
  fix swp swpFe atom/swap 1 1 8505477 ${temp} ke no types 6 7
  fix swp swpFe atom/swap 1 1 8505477 11435 ke no types 6 7
  thermo 100
  thermo_style custom step v_ftemp pe f_swp[1] f_swp[2]
  run ${nsteps}
  run 972
WARNING: No fixes with time integration, atoms won't move (../verlet.cpp:60)
PPPM initialization ...
  using 12-bit tables for long-range coulomb (../kspace.cpp:340)
  G vector (1/distance) = 0.29499995
  grid = 45 45 250
  stencil order = 5
  estimated absolute RMS force accuracy = 0.00038527262
  estimated relative force accuracy = 1.160237e-06
  using double precision KISS FFT
  3d grid and FFT values/proc = 554040 378675
  generated 45 of 45 mixed pair_coeff terms from arithmetic mixing rule
Per MPI rank memory allocation (min/avg/max) = 24.35 | 35.11 | 63.71 Mbytes
Step v_ftemp PotEng f_swp[1] f_swp[2] 
   13608        11435   -785863.32            0            0 
   13700        11435   -785803.94           92           22 
   13800        11435   -785838.39          192           43 
   13900        11435   -785676.29          292           60 
   14000        11435   -785710.83          392           85 
   14100        11435   -785873.88          492           96 
   14200        11435   -785755.96          592          120 
   14300        11435   -785801.21          692          137 
   14400        11435    -785654.6          792          152 
   14500        11435   -785788.11          892          173 
   14580        11435   -785893.14          972          190 
Loop time of 274.738 on 4 procs for 972 steps with 4311 atoms

Performance: 0.153 ns/day, 157.029 hours/ns, 3.538 timesteps/s
93.3% CPU use with 4 MPI tasks x no OpenMP threads

MPI task timing breakdown:
Section |  min time  |  avg time  |  max time  |%varavg| %total
---------------------------------------------------------------
Pair    | 2.9255     | 7.6697     | 11.459     | 129.2 |  2.79
Bond    | 0.0018397  | 0.003783   | 0.008955   |   4.9 |  0.00
Kspace  | 64.589     | 68.383     | 73.129     |  43.3 | 24.89
Neigh   | 17.302     | 17.329     | 17.368     |   0.6 |  6.31
Comm    | 0.46902    | 0.52021    | 0.55385    |   5.0 |  0.19
Output  | 0.00022315 | 0.00055139 | 0.0013464  |   0.0 |  0.00
Modify  | 180.79     | 180.8      | 180.81     |   0.1 | 65.81
Other   |            | 0.02955    |            |       |  0.01

Nlocal:        1077.75 ave        1494 max         657 min
Histogram: 1 1 0 0 0 0 0 0 1 1
Nghost:        8908.75 ave       11946 max        5684 min
Histogram: 1 1 0 0 0 0 0 0 0 2
Neighs:         536036 ave      798165 max      198523 min
Histogram: 1 0 0 1 0 0 0 0 0 2

Total # of neighbors = 2144145
Ave neighs/atom = 497.36604
Ave special neighs/atom = 0.029227557
Neighbor list builds = 1944
Dangerous builds = 0

  unfix swp
  thermo_style custom step temp pe

next temp
jump SELF minimize_temp

  variable ftemp equal v_temp

  # Electrostatic relaxation
  fix swp swpFe atom/swap 1 1 ${rand} ${temp} ke no types 6 7
  fix swp swpFe atom/swap 1 1 980195 ${temp} ke no types 6 7
  fix swp swpFe atom/swap 1 1 980195 10291 ke no types 6 7
  thermo 100
  thermo_style custom step v_ftemp pe f_swp[1] f_swp[2]
  run ${nsteps}
  run 972
WARNING: No fixes with time integration, atoms won't move (../verlet.cpp:60)
PPPM initialization ...
  using 12-bit tables for long-range coulomb (../kspace.cpp:340)
  G vector (1/distance) = 0.29499995
  grid = 45 45 250
  stencil order = 5
  estimated absolute RMS force accuracy = 0.00038527262
  estimated relative force accuracy = 1.160237e-06
  using double precision KISS FFT
  3d grid and FFT values/proc = 554040 378675
  generated 45 of 45 mixed pair_coeff terms from arithmetic mixing rule
Per MPI rank memory allocation (min/avg/max) = 24.35 | 35.11 | 63.71 Mbytes
Step v_ftemp PotEng f_swp[1] f_swp[2] 
   14580        10291   -785893.14            0            0 
   14600        10291   -785942.55           20            3 
   14700        10291   -785919.72          120           25 
   14800        10291   -785749.71          220           44 
   14900        10291   -785774.39          320           66 
   15000        10291   -785945.92          420           83 
   15100        10291   -785817.45          520           99 
   15200        10291   -785843.57          620          119 
   15300        10291   -785801.06          720          135 
   15400        10291   -785812.66          820          159 
   15500        10291   -785708.96          920          178 
   15552        10291   -785650.54          972          189 
Loop time of 275.648 on 4 procs for 972 steps with 4311 atoms

Performance: 0.152 ns/day, 157.549 hours/ns, 3.526 timesteps/s
92.2% CPU use with 4 MPI tasks x no OpenMP threads

MPI task timing breakdown:
Section |  min time  |  avg time  |  max time  |%varavg| %total
---------------------------------------------------------------
Pair    | 2.9882     | 7.8669     | 11.74      | 131.7 |  2.85
Bond    | 0.0023777  | 0.00428    | 0.009696   |   4.8 |  0.00
Kspace  | 64.285     | 68.169     | 73.048     |  44.8 | 24.73
Neigh   | 17.697     | 17.728     | 17.775     |   0.8 |  6.43
Comm    | 0.51445    | 0.59171    | 0.65482    |   6.8 |  0.21
Output  | 0.0002636  | 0.00062862 | 0.001498   |   0.0 |  0.00
Modify  | 181.22     | 181.25     | 181.29     |   0.2 | 65.76
Other   |            | 0.03275    |            |       |  0.01

Nlocal:        1077.75 ave        1494 max         657 min
Histogram: 1 1 0 0 0 0 0 0 1 1
Nghost:        8908.75 ave       11946 max        5684 min
Histogram: 1 1 0 0 0 0 0 0 0 2
Neighs:         536036 ave      798165 max      198523 min
Histogram: 1 0 0 1 0 0 0 0 0 2

Total # of neighbors = 2144145
Ave neighs/atom = 497.36604
Ave special neighs/atom = 0.029227557
Neighbor list builds = 1944
Dangerous builds = 0

  unfix swp
  thermo_style custom step temp pe

next temp
jump SELF minimize_temp

  variable ftemp equal v_temp

  # Electrostatic relaxation
  fix swp swpFe atom/swap 1 1 ${rand} ${temp} ke no types 6 7
  fix swp swpFe atom/swap 1 1 2065900 ${temp} ke no types 6 7
  fix swp swpFe atom/swap 1 1 2065900 9261 ke no types 6 7
  thermo 100
  thermo_style custom step v_ftemp pe f_swp[1] f_swp[2]
  run ${nsteps}
  run 972
WARNING: No fixes with time integration, atoms won't move (../verlet.cpp:60)
PPPM initialization ...
  using 12-bit tables for long-range coulomb (../kspace.cpp:340)
  G vector (1/distance) = 0.29499995
  grid = 45 45 250
  stencil order = 5
  estimated absolute RMS force accuracy = 0.00038527262
  estimated relative force accuracy = 1.160237e-06
  using double precision KISS FFT
  3d grid and FFT values/proc = 554040 378675
  generated 45 of 45 mixed pair_coeff terms from arithmetic mixing rule
Per MPI rank memory allocation (min/avg/max) = 24.35 | 35.11 | 63.71 Mbytes
Step v_ftemp PotEng f_swp[1] f_swp[2] 
   15552         9261   -785650.54            0            0 
   15600         9261   -785829.22           48            7 
   15700         9261   -785840.96          148           30 
   15800         9261   -785926.72          248           42 
   15900         9261   -785874.65          348           53 
   16000         9261    -785887.2          448           72 
   16100         9261   -785934.88          548           96 
   16200         9261   -785951.18          648          108 
   16300         9261   -785866.73          748          117 
   16400         9261    -785840.4          848          131 
   16500         9261   -785826.68          948          146 
   16524         9261   -785866.81          972          152 
Loop time of 282.772 on 4 procs for 972 steps with 4311 atoms

Performance: 0.148 ns/day, 161.621 hours/ns, 3.437 timesteps/s
92.0% CPU use with 4 MPI tasks x no OpenMP threads

MPI task timing breakdown:
Section |  min time  |  avg time  |  max time  |%varavg| %total
---------------------------------------------------------------
Pair    | 3.0209     | 7.7678     | 11.586     | 128.9 |  2.75
Bond    | 0.0017904  | 0.0038742  | 0.0089346  |   4.7 |  0.00
Kspace  | 67.191     | 71.014     | 75.768     |  42.7 | 25.11
Neigh   | 17.678     | 17.708     | 17.749     |   0.7 |  6.26
Comm    | 0.5281     | 0.57688    | 0.6232     |   5.7 |  0.20
Output  | 0.00026117 | 0.00059523 | 0.0013771  |   0.0 |  0.00
Modify  | 185.64     | 185.67     | 185.69     |   0.1 | 65.66
Other   |            | 0.0311     |            |       |  0.01

Nlocal:        1077.75 ave        1494 max         657 min
Histogram: 1 1 0 0 0 0 0 0 1 1
Nghost:        8908.75 ave       11946 max        5684 min
Histogram: 1 1 0 0 0 0 0 0 0 2
Neighs:         536036 ave      798165 max      198523 min
Histogram: 1 0 0 1 0 0 0 0 0 2

Total # of neighbors = 2144145
Ave neighs/atom = 497.36604
Ave special neighs/atom = 0.029227557
Neighbor list builds = 1944
Dangerous builds = 0

  unfix swp
  thermo_style custom step temp pe

next temp
jump SELF minimize_temp

  variable ftemp equal v_temp

  # Electrostatic relaxation
  fix swp swpFe atom/swap 1 1 ${rand} ${temp} ke no types 6 7
  fix swp swpFe atom/swap 1 1 5185835 ${temp} ke no types 6 7
  fix swp swpFe atom/swap 1 1 5185835 8334 ke no types 6 7
  thermo 100
  thermo_style custom step v_ftemp pe f_swp[1] f_swp[2]
  run ${nsteps}
  run 972
WARNING: No fixes with time integration, atoms won't move (../verlet.cpp:60)
PPPM initialization ...
  using 12-bit tables for long-range coulomb (../kspace.cpp:340)
  G vector (1/distance) = 0.29499995
  grid = 45 45 250
  stencil order = 5
  estimated absolute RMS force accuracy = 0.00038527262
  estimated relative force accuracy = 1.160237e-06
  using double precision KISS FFT
  3d grid and FFT values/proc = 554040 378675
  generated 45 of 45 mixed pair_coeff terms from arithmetic mixing rule
Per MPI rank memory allocation (min/avg/max) = 24.35 | 35.11 | 63.71 Mbytes
Step v_ftemp PotEng f_swp[1] f_swp[2] 
   16524         8334   -785866.81            0            0 
   16600         8334   -785820.09           76           10 
   16700         8334   -785922.45          176           31 
   16800         8334   -785903.91          276           49 
   16900         8334   -785961.48          376           60 
   17000         8334   -785972.69          476           73 
   17100         8334   -785879.28          576           83 
   17200         8334   -785889.12          676           99 
   17300         8334   -785997.92          776          109 
   17400         8334   -785930.68          876          122 
   17496         8334   -785879.18          972          140 
Loop time of 281.452 on 4 procs for 972 steps with 4311 atoms

Performance: 0.149 ns/day, 160.867 hours/ns, 3.454 timesteps/s
93.3% CPU use with 4 MPI tasks x no OpenMP threads

MPI task timing breakdown:
Section |  min time  |  avg time  |  max time  |%varavg| %total
---------------------------------------------------------------
Pair    | 2.8619     | 7.6436     | 11.468     | 130.7 |  2.72
Bond    | 0.0019599  | 0.0036766  | 0.0081951  |   4.3 |  0.00
Kspace  | 67.835     | 71.663     | 76.45      |  42.8 | 25.46
Neigh   | 17.373     | 17.4       | 17.436     |   0.6 |  6.18
Comm    | 0.45604    | 0.50875    | 0.54562    |   5.1 |  0.18
Output  | 0.00021061 | 0.00054213 | 0.0013597  |   0.0 |  0.00
Modify  | 184.19     | 184.2      | 184.22     |   0.1 | 65.45
Other   |            | 0.02835    |            |       |  0.01

Nlocal:        1077.75 ave        1494 max         657 min
Histogram: 1 1 0 0 0 0 0 0 1 1
Nghost:        8908.75 ave       11946 max        5684 min
Histogram: 1 1 0 0 0 0 0 0 0 2
Neighs:         536036 ave      798165 max      198523 min
Histogram: 1 0 0 1 0 0 0 0 0 2

Total # of neighbors = 2144145
Ave neighs/atom = 497.36604
Ave special neighs/atom = 0.029227557
Neighbor list builds = 1944
Dangerous builds = 0

  unfix swp
  thermo_style custom step temp pe

next temp
jump SELF minimize_temp

  variable ftemp equal v_temp

  # Electrostatic relaxation
  fix swp swpFe atom/swap 1 1 ${rand} ${temp} ke no types 6 7
  fix swp swpFe atom/swap 1 1 3359353 ${temp} ke no types 6 7
  fix swp swpFe atom/swap 1 1 3359353 7500 ke no types 6 7
  thermo 100
  thermo_style custom step v_ftemp pe f_swp[1] f_swp[2]
  run ${nsteps}
  run 972
WARNING: No fixes with time integration, atoms won't move (../verlet.cpp:60)
PPPM initialization ...
  using 12-bit tables for long-range coulomb (../kspace.cpp:340)
  G vector (1/distance) = 0.29499995
  grid = 45 45 250
  stencil order = 5
  estimated absolute RMS force accuracy = 0.00038527262
  estimated relative force accuracy = 1.160237e-06
  using double precision KISS FFT
  3d grid and FFT values/proc = 554040 378675
  generated 45 of 45 mixed pair_coeff terms from arithmetic mixing rule
Per MPI rank memory allocation (min/avg/max) = 24.35 | 35.11 | 63.71 Mbytes
Step v_ftemp PotEng f_swp[1] f_swp[2] 
   17496         7500   -785879.18            0            0 
   17500         7500   -785839.14            4            1 
   17600         7500   -785927.02          104           19 
   17700         7500   -785965.67          204           28 
   17800         7500   -786035.66          304           38 
   17900         7500   -786000.11          404           45 
   18000         7500    -785892.9          504           54 
   18100         7500   -786000.67          604           73 
   18200         7500   -786056.43          704           82 
   18300         7500   -785985.05          804           94 
   18400         7500   -785956.32          904          102 
   18468         7500      -785965          972          108 
Loop time of 283.733 on 4 procs for 972 steps with 4311 atoms

Performance: 0.148 ns/day, 162.170 hours/ns, 3.426 timesteps/s
93.2% CPU use with 4 MPI tasks x no OpenMP threads

MPI task timing breakdown:
Section |  min time  |  avg time  |  max time  |%varavg| %total
---------------------------------------------------------------
Pair    | 2.8779     | 7.5187     | 11.197     | 127.4 |  2.65
Bond    | 0.001824   | 0.0033526  | 0.0078429  |   4.5 |  0.00
Kspace  | 67.744     | 71.435     | 76.083     |  41.4 | 25.18
Neigh   | 17.178     | 17.205     | 17.237     |   0.6 |  6.06
Comm    | 0.5612     | 0.603      | 0.65139    |   5.3 |  0.21
Output  | 0.00022016 | 0.0005532  | 0.0013616  |   0.0 |  0.00
Modify  | 186.92     | 186.94     | 186.96     |   0.1 | 65.89
Other   |            | 0.02669    |            |       |  0.01

Nlocal:        1077.75 ave        1494 max         657 min
Histogram: 1 1 0 0 0 0 0 0 1 1
Nghost:        8908.75 ave       11946 max        5684 min
Histogram: 1 1 0 0 0 0 0 0 0 2
Neighs:         536036 ave      798165 max      198523 min
Histogram: 1 0 0 1 0 0 0 0 0 2

Total # of neighbors = 2144145
Ave neighs/atom = 497.36604
Ave special neighs/atom = 0.029227557
Neighbor list builds = 1944
Dangerous builds = 0

  unfix swp
  thermo_style custom step temp pe

next temp
jump SELF minimize_temp

  variable ftemp equal v_temp

  # Electrostatic relaxation
  fix swp swpFe atom/swap 1 1 ${rand} ${temp} ke no types 6 7
  fix swp swpFe atom/swap 1 1 6806545 ${temp} ke no types 6 7
  fix swp swpFe atom/swap 1 1 6806545 6750 ke no types 6 7
  thermo 100
  thermo_style custom step v_ftemp pe f_swp[1] f_swp[2]
  run ${nsteps}
  run 972
WARNING: No fixes with time integration, atoms won't move (../verlet.cpp:60)
PPPM initialization ...
  using 12-bit tables for long-range coulomb (../kspace.cpp:340)
  G vector (1/distance) = 0.29499995
  grid = 45 45 250
  stencil order = 5
  estimated absolute RMS force accuracy = 0.00038527262
  estimated relative force accuracy = 1.160237e-06
  using double precision KISS FFT
  3d grid and FFT values/proc = 554040 378675
  generated 45 of 45 mixed pair_coeff terms from arithmetic mixing rule
Per MPI rank memory allocation (min/avg/max) = 24.35 | 35.11 | 63.71 Mbytes
Step v_ftemp PotEng f_swp[1] f_swp[2] 
   18468         6750      -785965            0            0 
   18500         6750   -785916.12           32            1 
   18600         6750   -785996.27          132           15 
   18700         6750   -785940.23          232           27 
   18800         6750   -785911.55          332           39 
   18900         6750   -785906.88          432           46 
   19000         6750   -786019.91          532           59 
   19100         6750   -786034.55          632           69 
   19200         6750   -785987.95          732           83 
   19300         6750   -785952.76          832           98 
   19400         6750   -785959.72          932          110 
   19440         6750   -785995.36          972          112 
Loop time of 285.371 on 4 procs for 972 steps with 4311 atoms

Performance: 0.147 ns/day, 163.106 hours/ns, 3.406 timesteps/s
93.5% CPU use with 4 MPI tasks x no OpenMP threads

MPI task timing breakdown:
Section |  min time  |  avg time  |  max time  |%varavg| %total
---------------------------------------------------------------
Pair    | 2.8089     | 7.4541     | 11.137     | 128.3 |  2.61
Bond    | 0.0018384  | 0.0032615  | 0.0074828  |   4.3 |  0.00
Kspace  | 68.946     | 72.636     | 77.281     |  41.1 | 25.45
Neigh   | 16.88      | 16.907     | 16.944     |   0.6 |  5.92
Comm    | 0.46511    | 0.52569    | 0.5713     |   5.8 |  0.18
Output  | 0.0002411  | 0.0005775  | 0.0013824  |   0.0 |  0.00
Modify  | 187.8      | 187.82     | 187.84     |   0.1 | 65.82
Other   |            | 0.02568    |            |       |  0.01

Nlocal:        1077.75 ave        1494 max         657 min
Histogram: 1 1 0 0 0 0 0 0 1 1
Nghost:        8908.75 ave       11946 max        5684 min
Histogram: 1 1 0 0 0 0 0 0 0 2
Neighs:         536036 ave      798165 max      198523 min
Histogram: 1 0 0 1 0 0 0 0 0 2

Total # of neighbors = 2144145
Ave neighs/atom = 497.36604
Ave special neighs/atom = 0.029227557
Neighbor list builds = 1944
Dangerous builds = 0

  unfix swp
  thermo_style custom step temp pe

next temp
jump SELF minimize_temp

  variable ftemp equal v_temp

  # Electrostatic relaxation
  fix swp swpFe atom/swap 1 1 ${rand} ${temp} ke no types 6 7
  fix swp swpFe atom/swap 1 1 594805 ${temp} ke no types 6 7
  fix swp swpFe atom/swap 1 1 594805 6075 ke no types 6 7
  thermo 100
  thermo_style custom step v_ftemp pe f_swp[1] f_swp[2]
  run ${nsteps}
  run 972
WARNING: No fixes with time integration, atoms won't move (../verlet.cpp:60)
PPPM initialization ...
  using 12-bit tables for long-range coulomb (../kspace.cpp:340)
  G vector (1/distance) = 0.29499995
  grid = 45 45 250
  stencil order = 5
  estimated absolute RMS force accuracy = 0.00038527262
  estimated relative force accuracy = 1.160237e-06
  using double precision KISS FFT
  3d grid and FFT values/proc = 554040 378675
  generated 45 of 45 mixed pair_coeff terms from arithmetic mixing rule
Per MPI rank memory allocation (min/avg/max) = 24.35 | 35.11 | 63.71 Mbytes
Step v_ftemp PotEng f_swp[1] f_swp[2] 
   19440         6075   -785995.36            0            0 
   19500         6075   -786014.27           60            6 
   19600         6075   -785980.29          160           20 
   19700         6075   -785997.17          260           28 
   19800         6075   -785989.84          360           40 
   19900         6075   -786000.44          460           47 
   20000         6075   -785934.03          560           56 
   20100         6075   -785989.71          660           66 
   20200         6075   -785953.03          760           73 
   20300         6075   -785959.17          860           85 
   20400         6075   -785969.17          960           95 
   20412         6075   -786025.21          972           96 
Loop time of 279.639 on 4 procs for 972 steps with 4311 atoms

Performance: 0.150 ns/day, 159.830 hours/ns, 3.476 timesteps/s
93.4% CPU use with 4 MPI tasks x no OpenMP threads

MPI task timing breakdown:
Section |  min time  |  avg time  |  max time  |%varavg| %total
---------------------------------------------------------------
Pair    | 2.8639     | 7.6227     | 11.372     | 129.2 |  2.73
Bond    | 0.0020287  | 0.0037775  | 0.0084547  |   4.4 |  0.00
Kspace  | 66.864     | 70.617     | 75.378     |  42.5 | 25.25
Neigh   | 17.015     | 17.04      | 17.077     |   0.6 |  6.09
Comm    | 0.44256    | 0.48866    | 0.52042    |   4.8 |  0.17
Output  | 0.00024728 | 0.00073496 | 0.0019906  |   0.0 |  0.00
Modify  | 183.83     | 183.84     | 183.85     |   0.1 | 65.74
Other   |            | 0.02593    |            |       |  0.01

Nlocal:        1077.75 ave        1494 max         657 min
Histogram: 1 1 0 0 0 0 0 0 1 1
Nghost:        8908.75 ave       11946 max        5684 min
Histogram: 1 1 0 0 0 0 0 0 0 2
Neighs:         536036 ave      798165 max      198523 min
Histogram: 1 0 0 1 0 0 0 0 0 2

Total # of neighbors = 2144145
Ave neighs/atom = 497.36604
Ave special neighs/atom = 0.029227557
Neighbor list builds = 1944
Dangerous builds = 0

  unfix swp
  thermo_style custom step temp pe

next temp
jump SELF minimize_temp

  variable ftemp equal v_temp

  # Electrostatic relaxation
  fix swp swpFe atom/swap 1 1 ${rand} ${temp} ke no types 6 7
  fix swp swpFe atom/swap 1 1 3129163 ${temp} ke no types 6 7
  fix swp swpFe atom/swap 1 1 3129163 5467 ke no types 6 7
  thermo 100
  thermo_style custom step v_ftemp pe f_swp[1] f_swp[2]
  run ${nsteps}
  run 972
WARNING: No fixes with time integration, atoms won't move (../verlet.cpp:60)
PPPM initialization ...
  using 12-bit tables for long-range coulomb (../kspace.cpp:340)
  G vector (1/distance) = 0.29499995
  grid = 45 45 250
  stencil order = 5
  estimated absolute RMS force accuracy = 0.00038527262
  estimated relative force accuracy = 1.160237e-06
  using double precision KISS FFT
  3d grid and FFT values/proc = 554040 378675
  generated 45 of 45 mixed pair_coeff terms from arithmetic mixing rule
Per MPI rank memory allocation (min/avg/max) = 24.35 | 35.11 | 63.71 Mbytes
Step v_ftemp PotEng f_swp[1] f_swp[2] 
   20412         5467   -786025.21            0            0 
   20500         5467   -786084.45           88            8 
   20600         5467   -786059.89          188           13 
   20700         5467   -786085.08          288           20 
   20800         5467   -786097.65          388           24 
   20900         5467      -786055          488           33 
   21000         5467   -786070.31          588           34 
   21100         5467   -786100.09          688           41 
   21200         5467   -786118.37          788           42 
   21300         5467   -786127.29          888           45 
   21384         5467   -786074.85          972           52 
Loop time of 278.669 on 4 procs for 972 steps with 4311 atoms

Performance: 0.151 ns/day, 159.276 hours/ns, 3.488 timesteps/s
93.2% CPU use with 4 MPI tasks x no OpenMP threads

MPI task timing breakdown:
Section |  min time  |  avg time  |  max time  |%varavg| %total
---------------------------------------------------------------
Pair    | 2.916      | 7.7241     | 11.549     | 130.7 |  2.77
Bond    | 0.0020613  | 0.0039385  | 0.008789   |   4.5 |  0.00
Kspace  | 65.979     | 69.815     | 74.622     |  43.5 | 25.05
Neigh   | 17.01      | 17.035     | 17.07      |   0.6 |  6.11
Comm    | 0.43577    | 0.4828     | 0.52358    |   4.8 |  0.17
Output  | 0.00022995 | 0.00050945 | 0.0011479  |   0.0 |  0.00
Modify  | 183.56     | 183.58     | 183.59     |   0.1 | 65.88
Other   |            | 0.02914    |            |       |  0.01

Nlocal:        1077.75 ave        1494 max         657 min
Histogram: 1 1 0 0 0 0 0 0 1 1
Nghost:        8908.75 ave       11946 max        5684 min
Histogram: 1 1 0 0 0 0 0 0 0 2
Neighs:         536036 ave      798165 max      198523 min
Histogram: 1 0 0 1 0 0 0 0 0 2

Total # of neighbors = 2144145
Ave neighs/atom = 497.36604
Ave special neighs/atom = 0.029227557
Neighbor list builds = 1944
Dangerous builds = 0

  unfix swp
  thermo_style custom step temp pe

next temp
jump SELF minimize_temp

  variable ftemp equal v_temp

  # Electrostatic relaxation
  fix swp swpFe atom/swap 1 1 ${rand} ${temp} ke no types 6 7
  fix swp swpFe atom/swap 1 1 8397505 ${temp} ke no types 6 7
  fix swp swpFe atom/swap 1 1 8397505 4920 ke no types 6 7
  thermo 100
  thermo_style custom step v_ftemp pe f_swp[1] f_swp[2]
  run ${nsteps}
  run 972
WARNING: No fixes with time integration, atoms won't move (../verlet.cpp:60)
PPPM initialization ...
  using 12-bit tables for long-range coulomb (../kspace.cpp:340)
  G vector (1/distance) = 0.29499995
  grid = 45 45 250
  stencil order = 5
  estimated absolute RMS force accuracy = 0.00038527262
  estimated relative force accuracy = 1.160237e-06
  using double precision KISS FFT
  3d grid and FFT values/proc = 554040 378675
  generated 45 of 45 mixed pair_coeff terms from arithmetic mixing rule
Per MPI rank memory allocation (min/avg/max) = 24.35 | 35.11 | 63.71 Mbytes
Step v_ftemp PotEng f_swp[1] f_swp[2] 
   21384         4920   -786074.85            0            0 
   21400         4920   -786074.85           16            0 
   21500         4920   -786090.53          116            4 
   21600         4920   -786094.38          216            5 
   21700         4920   -786024.26          316           12 
   21800         4920   -786064.07          416           20 
   21900         4920   -786035.86          516           29 
   22000         4920   -786045.11          616           35 
   22100         4920   -786048.02          716           40 
   22200         4920   -786067.81          816           50 
   22300         4920   -786068.19          916           56 
   22356         4920   -786026.22          972           57 
Loop time of 276.972 on 4 procs for 972 steps with 4311 atoms

Performance: 0.152 ns/day, 158.306 hours/ns, 3.509 timesteps/s
93.6% CPU use with 4 MPI tasks x no OpenMP threads

MPI task timing breakdown:
Section |  min time  |  avg time  |  max time  |%varavg| %total
---------------------------------------------------------------
Pair    | 2.85       | 7.5054     | 11.131     | 127.8 |  2.71
Bond    | 0.0020988  | 0.0037038  | 0.008289   |   4.4 |  0.00
Kspace  | 68.143     | 71.766     | 76.43      |  41.4 | 25.91
Neigh   | 16.745     | 16.77      | 16.807     |   0.6 |  6.05
Comm    | 0.46071    | 0.52317    | 0.55969    |   5.5 |  0.19
Output  | 0.00023379 | 0.00057209 | 0.0013367  |   0.0 |  0.00
Modify  | 180.36     | 180.38     | 180.41     |   0.2 | 65.13
Other   |            | 0.02352    |            |       |  0.01

Nlocal:        1077.75 ave        1494 max         657 min
Histogram: 1 1 0 0 0 0 0 0 1 1
Nghost:        8908.75 ave       11946 max        5684 min
Histogram: 1 1 0 0 0 0 0 0 0 2
Neighs:         536036 ave      798165 max      198523 min
Histogram: 1 0 0 1 0 0 0 0 0 2

Total # of neighbors = 2144145
Ave neighs/atom = 497.36604
Ave special neighs/atom = 0.029227557
Neighbor list builds = 1944
Dangerous builds = 0

  unfix swp
  thermo_style custom step temp pe

next temp
jump SELF minimize_temp

  variable ftemp equal v_temp

  # Electrostatic relaxation
  fix swp swpFe atom/swap 1 1 ${rand} ${temp} ke no types 6 7
  fix swp swpFe atom/swap 1 1 7746391 ${temp} ke no types 6 7
  fix swp swpFe atom/swap 1 1 7746391 4428 ke no types 6 7
  thermo 100
  thermo_style custom step v_ftemp pe f_swp[1] f_swp[2]
  run ${nsteps}
  run 972
WARNING: No fixes with time integration, atoms won't move (../verlet.cpp:60)
PPPM initialization ...
  using 12-bit tables for long-range coulomb (../kspace.cpp:340)
  G vector (1/distance) = 0.29499995
  grid = 45 45 250
  stencil order = 5
  estimated absolute RMS force accuracy = 0.00038527262
  estimated relative force accuracy = 1.160237e-06
  using double precision KISS FFT
  3d grid and FFT values/proc = 554040 378675
  generated 45 of 45 mixed pair_coeff terms from arithmetic mixing rule
Per MPI rank memory allocation (min/avg/max) = 24.35 | 35.11 | 63.71 Mbytes
Step v_ftemp PotEng f_swp[1] f_swp[2] 
   22356         4428   -786026.22            0            0 
   22400         4428   -786033.91           44            4 
   22500         4428   -786015.14          144           12 
   22600         4428   -786070.02          244           18 
   22700         4428   -786064.47          344           20 
   22800         4428   -786050.27          444           23 
   22900         4428   -786061.54          544           28 
   23000         4428   -786027.67          644           33 
   23100         4428   -786083.87          744           38 
   23200         4428   -786090.82          844           45 
   23300         4428   -786099.26          944           49 
   23328         4428   -786099.26          972           49 
Loop time of 275.239 on 4 procs for 972 steps with 4311 atoms

Performance: 0.153 ns/day, 157.315 hours/ns, 3.531 timesteps/s
93.9% CPU use with 4 MPI tasks x no OpenMP threads

MPI task timing breakdown:
Section |  min time  |  avg time  |  max time  |%varavg| %total
---------------------------------------------------------------
Pair    | 2.8396     | 7.5216     | 11.157     | 128.3 |  2.73
Bond    | 0.0016367  | 0.0035906  | 0.0083348  |   4.6 |  0.00
Kspace  | 66.05      | 69.69      | 74.373     |  42.2 | 25.32
Neigh   | 16.677     | 16.703     | 16.738     |   0.6 |  6.07
Comm    | 0.42395    | 0.47408    | 0.50726    |   5.0 |  0.17
Output  | 0.00023483 | 0.00065971 | 0.0017189  |   0.0 |  0.00
Modify  | 180.81     | 180.82     | 180.83     |   0.1 | 65.70
Other   |            | 0.02608    |            |       |  0.01

Nlocal:        1077.75 ave        1494 max         657 min
Histogram: 1 1 0 0 0 0 0 0 1 1
Nghost:        8908.75 ave       11946 max        5684 min
Histogram: 1 1 0 0 0 0 0 0 0 2
Neighs:         536036 ave      798165 max      198523 min
Histogram: 1 0 0 1 0 0 0 0 0 2

Total # of neighbors = 2144145
Ave neighs/atom = 497.36604
Ave special neighs/atom = 0.029227557
Neighbor list builds = 1944
Dangerous builds = 0

  unfix swp
  thermo_style custom step temp pe

next temp
jump SELF minimize_temp

  variable ftemp equal v_temp

  # Electrostatic relaxation
  fix swp swpFe atom/swap 1 1 ${rand} ${temp} ke no types 6 7
  fix swp swpFe atom/swap 1 1 6520128 ${temp} ke no types 6 7
  fix swp swpFe atom/swap 1 1 6520128 3985 ke no types 6 7
  thermo 100
  thermo_style custom step v_ftemp pe f_swp[1] f_swp[2]
  run ${nsteps}
  run 972
WARNING: No fixes with time integration, atoms won't move (../verlet.cpp:60)
PPPM initialization ...
  using 12-bit tables for long-range coulomb (../kspace.cpp:340)
  G vector (1/distance) = 0.29499995
  grid = 45 45 250
  stencil order = 5
  estimated absolute RMS force accuracy = 0.00038527262
  estimated relative force accuracy = 1.160237e-06
  using double precision KISS FFT
  3d grid and FFT values/proc = 554040 378675
  generated 45 of 45 mixed pair_coeff terms from arithmetic mixing rule
Per MPI rank memory allocation (min/avg/max) = 24.35 | 35.11 | 63.71 Mbytes
Step v_ftemp PotEng f_swp[1] f_swp[2] 
   23328         3985   -786099.26            0            0 
   23400         3985   -786107.85           72            3 
   23500         3985   -786127.28          172            6 
   23600         3985   -786128.08          272            7 
   23700         3985   -786100.59          372            9 
   23800         3985   -786102.09          472           16 
   23900         3985   -786087.54          572           22 
   24000         3985   -786072.83          672           27 
   24100         3985   -786092.65          772           35 
   24200         3985   -786073.04          872           38 
   24300         3985   -786060.34          972           47 
Loop time of 275.496 on 4 procs for 972 steps with 4311 atoms

Performance: 0.152 ns/day, 157.462 hours/ns, 3.528 timesteps/s
93.8% CPU use with 4 MPI tasks x no OpenMP threads

MPI task timing breakdown:
Section |  min time  |  avg time  |  max time  |%varavg| %total
---------------------------------------------------------------
Pair    | 2.8889     | 7.5708     | 11.23      | 128.4 |  2.75
Bond    | 0.0017992  | 0.0036708  | 0.0087213  |   4.8 |  0.00
Kspace  | 67.107     | 70.772     | 75.455     |  42.0 | 25.69
Neigh   | 16.715     | 16.739     | 16.773     |   0.6 |  6.08
Comm    | 0.40291    | 0.4477     | 0.47658    |   4.6 |  0.16
Output  | 0.00020475 | 0.00050288 | 0.0012484  |   0.0 |  0.00
Modify  | 179.93     | 179.94     | 179.95     |   0.1 | 65.31
Other   |            | 0.0248     |            |       |  0.01

Nlocal:        1077.75 ave        1494 max         657 min
Histogram: 1 1 0 0 0 0 0 0 1 1
Nghost:        8908.75 ave       11946 max        5684 min
Histogram: 1 1 0 0 0 0 0 0 0 2
Neighs:         536036 ave      798165 max      198523 min
Histogram: 1 0 0 1 0 0 0 0 0 2

Total # of neighbors = 2144145
[...]
Loop time of 269.54 on 4 procs for 972 steps with 4311 atoms

Performance: 0.156 ns/day, 154.058 hours/ns, 3.606 timesteps/s
94.3% CPU use with 4 MPI tasks x no OpenMP threads

MPI task timing breakdown:
Section |  min time  |  avg time  |  max time  |%varavg| %total
---------------------------------------------------------------
Pair    | 2.8187     | 7.4152     | 11.045     | 127.6 |  2.75
Bond    | 0.0012705  | 0.0032432  | 0.0077471  |   4.6 |  0.00
Kspace  | 65.59      | 69.223     | 73.821     |  41.8 | 25.68
Neigh   | 16.449     | 16.471     | 16.502     |   0.5 |  6.11
Comm    | 0.37508    | 0.4154     | 0.44374    |   4.5 |  0.15
Output  | 0.00022244 | 0.00054917 | 0.0013322  |   0.0 |  0.00
Modify  | 175.98     | 175.99     | 176        |   0.1 | 65.29
Other   |            | 0.02228    |            |       |  0.01

Nlocal:        1077.75 ave        1494 max         657 min
Histogram: 1 1 0 0 0 0 0 0 1 1
Nghost:        8908.75 ave       11946 max        5684 min
Histogram: 1 1 0 0 0 0 0 0 0 2
Neighs:         536036 ave      798165 max      198523 min
Histogram: 1 0 0 1 0 0 0 0 0 2

Total # of neighbors = 2144145
Ave neighs/atom = 497.36604
Ave special neighs/atom = 0.029227557
Neighbor list builds = 1944
Dangerous builds = 0

  unfix swp
  thermo_style custom step temp pe

next temp
jump SELF minimize_temp

  variable ftemp equal v_temp

  # Electrostatic relaxation
  fix swp swpFe atom/swap 1 1 ${rand} ${temp} ke no types 6 7
  fix swp swpFe atom/swap 1 1 8822405 ${temp} ke no types 6 7
  fix swp swpFe atom/swap 1 1 8822405 5 ke no types 6 7
  thermo 100
  thermo_style custom step v_ftemp pe f_swp[1] f_swp[2]
  run ${nsteps}
  run 972
WARNING: No fixes with time integration, atoms won't move (../verlet.cpp:60)
PPPM initialization ...
  using 12-bit tables for long-range coulomb (../kspace.cpp:340)
  G vector (1/distance) = 0.29499995
  grid = 45 45 250
  stencil order = 5
  estimated absolute RMS force accuracy = 0.00038527262
  estimated relative force accuracy = 1.160237e-06
  using double precision KISS FFT
  3d grid and FFT values/proc = 554040 378675
  generated 45 of 45 mixed pair_coeff terms from arithmetic mixing rule
Per MPI rank memory allocation (min/avg/max) = 24.35 | 35.11 | 63.71 Mbytes
Step v_ftemp PotEng f_swp[1] f_swp[2] 
   79704            5   -786144.25            0            0 
   79800            5   -786144.25           96            0 
   79900            5   -786144.25          196            0 
   80000            5   -786144.25          296            0 
   80100            5   -786144.25          396            0 
   80200            5   -786144.25          496            0 
   80300            5   -786144.25          596            0 
   80400            5   -786144.25          696            0 
   80500            5   -786144.25          796            0 
   80600            5   -786144.25          896            0 
   80676            5   -786144.25          972            0 
Loop time of 272.011 on 4 procs for 972 steps with 4311 atoms

Performance: 0.154 ns/day, 155.470 hours/ns, 3.573 timesteps/s
94.1% CPU use with 4 MPI tasks x no OpenMP threads

MPI task timing breakdown:
Section |  min time  |  avg time  |  max time  |%varavg| %total
---------------------------------------------------------------
Pair    | 2.7717     | 7.2879     | 10.841     | 125.6 |  2.68
Bond    | 0.00099963 | 0.0028506  | 0.0070685  |   4.6 |  0.00
Kspace  | 66.054     | 69.612     | 74.129     |  40.7 | 25.59
Neigh   | 16.614     | 16.641     | 16.679     |   0.6 |  6.12
Comm    | 0.45139    | 0.5035     | 0.53682    |   5.0 |  0.19
Output  | 0.00022199 | 0.00054106 | 0.0012935  |   0.0 |  0.00
Modify  | 177.93     | 177.94     | 177.95     |   0.1 | 65.42
Other   |            | 0.02343    |            |       |  0.01

Nlocal:        1077.75 ave        1494 max         657 min
Histogram: 1 1 0 0 0 0 0 0 1 1
Nghost:        8908.75 ave       11946 max        5684 min
Histogram: 1 1 0 0 0 0 0 0 0 2
Neighs:         536036 ave      798165 max      198523 min
Histogram: 1 0 0 1 0 0 0 0 0 2

Total # of neighbors = 2144145
Ave neighs/atom = 497.36604
Ave special neighs/atom = 0.029227557
Neighbor list builds = 1944
Dangerous builds = 0

  unfix swp
  thermo_style custom step temp pe

next temp
jump SELF minimize_temp

  variable ftemp equal v_temp

  # Electrostatic relaxation
  fix swp swpFe atom/swap 1 1 ${rand} ${temp} ke no types 6 7
  fix swp swpFe atom/swap 1 1 1866513 ${temp} ke no types 6 7
  fix swp swpFe atom/swap 1 1 1866513 4 ke no types 6 7
  thermo 100
  thermo_style custom step v_ftemp pe f_swp[1] f_swp[2]
  run ${nsteps}
  run 972
WARNING: No fixes with time integration, atoms won't move (../verlet.cpp:60)
PPPM initialization ...
  using 12-bit tables for long-range coulomb (../kspace.cpp:340)
  G vector (1/distance) = 0.29499995
  grid = 45 45 250
  stencil order = 5
  estimated absolute RMS force accuracy = 0.00038527262
  estimated relative force accuracy = 1.160237e-06
  using double precision KISS FFT
  3d grid and FFT values/proc = 554040 378675
  generated 45 of 45 mixed pair_coeff terms from arithmetic mixing rule
Per MPI rank memory allocation (min/avg/max) = 24.35 | 35.11 | 63.71 Mbytes
Step v_ftemp PotEng f_swp[1] f_swp[2] 
   80676            4   -786144.25            0            0 
   80700            4   -786144.25           24            0 
   80800            4   -786144.25          124            0 
   80900            4   -786144.25          224            0 
   81000            4   -786144.25          324            0 
   81100            4   -786144.25          424            0 
   81200            4   -786144.25          524            0 
   81300            4   -786144.25          624            0 
   81400            4   -786144.25          724            0 
   81500            4   -786144.25          824            0 
   81600            4   -786144.25          924            0 
   81648            4   -786144.25          972            0 
Loop time of 269.702 on 4 procs for 972 steps with 4311 atoms

Performance: 0.156 ns/day, 154.151 hours/ns, 3.604 timesteps/s
94.4% CPU use with 4 MPI tasks x no OpenMP threads

MPI task timing breakdown:
Section |  min time  |  avg time  |  max time  |%varavg| %total
---------------------------------------------------------------
Pair    | 2.8261     | 7.3044     | 10.862     | 125.4 |  2.71
Bond    | 0.0013978  | 0.0030365  | 0.0076239  |   4.8 |  0.00
Kspace  | 64.737     | 68.3       | 72.779     |  41.0 | 25.32
Neigh   | 16.637     | 16.662     | 16.698     |   0.6 |  6.18
Comm    | 0.4214     | 0.46998    | 0.50263    |   4.9 |  0.17
Output  | 0.00022022 | 0.00052729 | 0.0012886  |   0.0 |  0.00
Modify  | 176.93     | 176.94     | 176.95     |   0.1 | 65.60
Other   |            | 0.02432    |            |       |  0.01

Nlocal:        1077.75 ave        1494 max         657 min
Histogram: 1 1 0 0 0 0 0 0 1 1
Nghost:        8908.75 ave       11946 max        5684 min
Histogram: 1 1 0 0 0 0 0 0 0 2
Neighs:         536036 ave      798165 max      198523 min
Histogram: 1 0 0 1 0 0 0 0 0 2

Total # of neighbors = 2144145
Ave neighs/atom = 497.36604
Ave special neighs/atom = 0.029227557
Neighbor list builds = 1944
Dangerous builds = 0

  unfix swp
  thermo_style custom step temp pe

next temp
jump SELF minimize_temp

  variable ftemp equal v_temp

  # Electrostatic relaxation
  fix swp swpFe atom/swap 1 1 ${rand} ${temp} ke no types 6 7
  fix swp swpFe atom/swap 1 1 2979469 ${temp} ke no types 6 7
  fix swp swpFe atom/swap 1 1 2979469 3 ke no types 6 7
  thermo 100
  thermo_style custom step v_ftemp pe f_swp[1] f_swp[2]
  run ${nsteps}
  run 972
WARNING: No fixes with time integration, atoms won't move (../verlet.cpp:60)
PPPM initialization ...
  using 12-bit tables for long-range coulomb (../kspace.cpp:340)
  G vector (1/distance) = 0.29499995
  grid = 45 45 250
  stencil order = 5
  estimated absolute RMS force accuracy = 0.00038527262
  estimated relative force accuracy = 1.160237e-06
  using double precision KISS FFT
  3d grid and FFT values/proc = 554040 378675
  generated 45 of 45 mixed pair_coeff terms from arithmetic mixing rule
Per MPI rank memory allocation (min/avg/max) = 24.35 | 35.11 | 63.71 Mbytes
Step v_ftemp PotEng f_swp[1] f_swp[2] 
   81648            3   -786144.25            0            0 
   81700            3   -786144.25           52            0 
   81800            3   -786144.25          152            0 
   81900            3   -786144.25          252            0 
   82000            3   -786144.25          352            0 
   82100            3   -786144.25          452            0 
   82200            3   -786144.25          552            0 
   82300            3   -786144.25          652            0 
   82400            3   -786144.25          752            0 
   82500            3   -786144.25          852            0 
   82600            3   -786144.25          952            0 
   82620            3   -786144.25          972            0 
Loop time of 270.168 on 4 procs for 972 steps with 4311 atoms

Performance: 0.155 ns/day, 154.417 hours/ns, 3.598 timesteps/s
94.4% CPU use with 4 MPI tasks x no OpenMP threads

MPI task timing breakdown:
Section |  min time  |  avg time  |  max time  |%varavg| %total
---------------------------------------------------------------
Pair    | 2.7904     | 7.4017     | 11.109     | 128.2 |  2.74
Bond    | 0.0016253  | 0.0032161  | 0.0074408  |   4.3 |  0.00
Kspace  | 64.727     | 68.438     | 73.05      |  42.2 | 25.33
Neigh   | 16.629     | 16.654     | 16.687     |   0.6 |  6.16
Comm    | 0.4009     | 0.44507    | 0.47474    |   4.7 |  0.16
Output  | 0.00035013 | 0.00070726 | 0.0014657  |   0.0 |  0.00
Modify  | 177.19     | 177.2      | 177.21     |   0.1 | 65.59
Other   |            | 0.02274    |            |       |  0.01

Nlocal:        1077.75 ave        1494 max         657 min
Histogram: 1 1 0 0 0 0 0 0 1 1
Nghost:        8908.75 ave       11946 max        5684 min
Histogram: 1 1 0 0 0 0 0 0 0 2
Neighs:         536036 ave      798165 max      198523 min
Histogram: 1 0 0 1 0 0 0 0 0 2

Total # of neighbors = 2144145
Ave neighs/atom = 497.36604
Ave special neighs/atom = 0.029227557
Neighbor list builds = 1944
Dangerous builds = 0

  unfix swp
  thermo_style custom step temp pe

next temp
jump SELF minimize_temp

  variable ftemp equal v_temp

  # Electrostatic relaxation
  fix swp swpFe atom/swap 1 1 ${rand} ${temp} ke no types 6 7
  fix swp swpFe atom/swap 1 1 7974133 ${temp} ke no types 6 7
  fix swp swpFe atom/swap 1 1 7974133 2 ke no types 6 7
  thermo 100
  thermo_style custom step v_ftemp pe f_swp[1] f_swp[2]
  run ${nsteps}
  run 972
WARNING: No fixes with time integration, atoms won't move (../verlet.cpp:60)
PPPM initialization ...
  using 12-bit tables for long-range coulomb (../kspace.cpp:340)
  G vector (1/distance) = 0.29499995
  grid = 45 45 250
  stencil order = 5
  estimated absolute RMS force accuracy = 0.00038527262
  estimated relative force accuracy = 1.160237e-06
  using double precision KISS FFT
  3d grid and FFT values/proc = 554040 378675
  generated 45 of 45 mixed pair_coeff terms from arithmetic mixing rule
Per MPI rank memory allocation (min/avg/max) = 24.35 | 35.11 | 63.71 Mbytes
Step v_ftemp PotEng f_swp[1] f_swp[2] 
   82620            2   -786144.25            0            0 
   82700            2   -786144.25           80            0 
   82800            2   -786144.25          180            0 
   82900            2   -786144.25          280            0 
   83000            2   -786144.25          380            0 
   83100            2   -786144.25          480            0 
   83200            2   -786144.25          580            0 
   83300            2   -786144.25          680            0 
   83400            2   -786144.25          780            0 
   83500            2   -786144.25          880            0 
   83592            2   -786144.25          972            0 
Loop time of 269.377 on 4 procs for 972 steps with 4311 atoms

Performance: 0.156 ns/day, 153.965 hours/ns, 3.608 timesteps/s
94.6% CPU use with 4 MPI tasks x no OpenMP threads

MPI task timing breakdown:
Section |  min time  |  avg time  |  max time  |%varavg| %total
---------------------------------------------------------------
Pair    | 2.7605     | 7.2516     | 10.843     | 125.6 |  2.69
Bond    | 0.0010212  | 0.0027145  | 0.0069723  |   4.7 |  0.00
Kspace  | 63.657     | 67.253     | 71.746     |  41.3 | 24.97
Neigh   | 16.726     | 16.753     | 16.79      |   0.6 |  6.22
Comm    | 0.45565    | 0.50803    | 0.54154    |   5.0 |  0.19
Output  | 0.00020841 | 0.00052502 | 0.0012847  |   0.0 |  0.00
Modify  | 177.57     | 177.58     | 177.6      |   0.1 | 65.92
Other   |            | 0.02474    |            |       |  0.01

Nlocal:        1077.75 ave        1494 max         657 min
Histogram: 1 1 0 0 0 0 0 0 1 1
Nghost:        8908.75 ave       11946 max        5684 min
Histogram: 1 1 0 0 0 0 0 0 0 2
Neighs:         536036 ave      798165 max      198523 min
Histogram: 1 0 0 1 0 0 0 0 0 2

Total # of neighbors = 2144145
Ave neighs/atom = 497.36604
Ave special neighs/atom = 0.029227557
Neighbor list builds = 1944
Dangerous builds = 0

  unfix swp
  thermo_style custom step temp pe

next temp
jump SELF minimize_temp

  variable ftemp equal v_temp

  # Electrostatic relaxation
  fix swp swpFe atom/swap 1 1 ${rand} ${temp} ke no types 6 7
  fix swp swpFe atom/swap 1 1 9540448 ${temp} ke no types 6 7
  fix swp swpFe atom/swap 1 1 9540448 1 ke no types 6 7
  thermo 100
  thermo_style custom step v_ftemp pe f_swp[1] f_swp[2]
  run ${nsteps}
  run 972
WARNING: No fixes with time integration, atoms won't move (../verlet.cpp:60)
PPPM initialization ...
  using 12-bit tables for long-range coulomb (../kspace.cpp:340)
  G vector (1/distance) = 0.29499995
  grid = 45 45 250
  stencil order = 5
  estimated absolute RMS force accuracy = 0.00038527262
  estimated relative force accuracy = 1.160237e-06
  using double precision KISS FFT
  3d grid and FFT values/proc = 554040 378675
  generated 45 of 45 mixed pair_coeff terms from arithmetic mixing rule
Per MPI rank memory allocation (min/avg/max) = 24.35 | 35.11 | 63.71 Mbytes
Step v_ftemp PotEng f_swp[1] f_swp[2] 
   83592            1   -786144.25            0            0 
   83600            1   -786144.25            8            0 
   83700            1   -786144.25          108            0 
   83800            1   -786144.25          208            0 
   83900            1   -786144.25          308            0 
   84000            1   -786144.25          408            0 
   84100            1   -786144.25          508            0 
   84200            1   -786144.25          608            0 
   84300            1   -786144.25          708            0 
   84400            1   -786144.25          808            0 
   84500            1   -786144.25          908            0 
   84564            1   -786144.25          972            0 
Loop time of 269.092 on 4 procs for 972 steps with 4311 atoms

Performance: 0.156 ns/day, 153.802 hours/ns, 3.612 timesteps/s
94.5% CPU use with 4 MPI tasks x no OpenMP threads

MPI task timing breakdown:
Section |  min time  |  avg time  |  max time  |%varavg| %total
---------------------------------------------------------------
Pair    | 2.7703     | 7.3719     | 11.048     | 127.7 |  2.74
Bond    | 0.0016278  | 0.0031864  | 0.0076135  |   4.5 |  0.00
Kspace  | 64.554     | 68.234     | 72.836     |  42.0 | 25.36
Neigh   | 16.667     | 16.693     | 16.728     |   0.6 |  6.20
Comm    | 0.41469    | 0.46241    | 0.49388    |   4.9 |  0.17
Output  | 0.00019521 | 0.00047143 | 0.00113    |   0.0 |  0.00
Modify  | 176.29     | 176.31     | 176.32     |   0.1 | 65.52
Other   |            | 0.02306    |            |       |  0.01

Nlocal:        1077.75 ave        1494 max         657 min
Histogram: 1 1 0 0 0 0 0 0 1 1
Nghost:        8908.75 ave       11946 max        5684 min
Histogram: 1 1 0 0 0 0 0 0 0 2
Neighs:         536036 ave      798165 max      198523 min
Histogram: 1 0 0 1 0 0 0 0 0 2

Total # of neighbors = 2144145
Ave neighs/atom = 497.36604
Ave special neighs/atom = 0.029227557
Neighbor list builds = 1944
Dangerous builds = 0

  unfix swp
  thermo_style custom step temp pe

next temp
jump SELF minimize_temp

write_data 001-dbt_3x3_${layer}L_${type}_lqeq.data
write_data 001-dbt_3x3_21L_${type}_lqeq.data
write_data 001-dbt_3x3_21L_fa_int_half_qeq_lqeq.data
System init for write_data ...
PPPM initialization ...
  using 12-bit tables for long-range coulomb (../kspace.cpp:340)
  G vector (1/distance) = 0.29499995
  grid = 45 45 250
  stencil order = 5
  estimated absolute RMS force accuracy = 0.00038527262
  estimated relative force accuracy = 1.160237e-06
  using double precision KISS FFT
  3d grid and FFT values/proc = 554040 378675
  generated 45 of 45 mixed pair_coeff terms from arithmetic mixing rule

# Full minimization
minimize 1.0e-6 1.0e-9 1000 10000
PPPM initialization ...
  using 12-bit tables for long-range coulomb (../kspace.cpp:340)
  G vector (1/distance) = 0.29499995
  grid = 45 45 250
  stencil order = 5
  estimated absolute RMS force accuracy = 0.00038527262
  estimated relative force accuracy = 1.160237e-06
  using double precision KISS FFT
  3d grid and FFT values/proc = 554040 378675
  generated 45 of 45 mixed pair_coeff terms from arithmetic mixing rule
Per MPI rank memory allocation (min/avg/max) = 25.48 | 36.23 | 64.84 Mbytes
Step Temp PotEng 
   84564            0   -786144.25 
   84600            0   -805872.19 
   84700            0   -806713.54 
   84800            0   -807131.41 
   84900            0   -807509.11 
   84986            0   -807772.58 
Loop time of 57.9735 on 4 procs for 422 steps with 4311 atoms

94.4% CPU use with 4 MPI tasks x no OpenMP threads

Minimization stats:
  Stopping criterion = energy tolerance
  Energy initial, next-to-last, final = 
     -786144.251251822   -807772.00594772  -807772.579738729
  Force two-norm initial, final = 5380.7912 37.594012
  Force max component initial, final = 208.78614 9.5549177
  Final line search alpha, max atom move = 0.0068447633 0.06540115
  Iterations, force evaluations = 422 813

MPI task timing breakdown:
Section |  min time  |  avg time  |  max time  |%varavg| %total
---------------------------------------------------------------
Pair    | 3.4898     | 8.893      | 13.123     | 133.6 | 15.34
Bond    | 0.0012038  | 0.0026323  | 0.0065635  |   4.4 |  0.00
Kspace  | 44.348     | 48.58      | 53.984     |  57.2 | 83.80
Neigh   | 0.30645    | 0.30688    | 0.30745    |   0.1 |  0.53
Comm    | 0.136      | 0.14408    | 0.15272    |   1.8 |  0.25
Output  | 8.5675e-05 | 0.00013754 | 0.00029079 |   0.0 |  0.00
Modify  | 0          | 0          | 0          |   0.0 |  0.00
Other   |            | 0.04635    |            |       |  0.08

Nlocal:        1077.75 ave        1469 max         657 min
Histogram: 1 1 0 0 0 0 0 0 0 2
Nghost:        8930.75 ave       11989 max        5664 min
Histogram: 1 1 0 0 0 0 0 0 0 2
Neighs:         528768 ave      762722 max      198112 min
Histogram: 1 0 0 1 0 0 0 0 0 2

Total # of neighbors = 2115071
Ave neighs/atom = 490.6219
Ave special neighs/atom = 0.029227557
Neighbor list builds = 19
Dangerous builds = 0

write_data 001-dbt_3x3_${layer}L_${type}_lqeq_min.data
write_data 001-dbt_3x3_21L_${type}_lqeq_min.data
write_data 001-dbt_3x3_21L_fa_int_half_qeq_lqeq_min.data
System init for write_data ...
PPPM initialization ...
  using 12-bit tables for long-range coulomb (../kspace.cpp:340)
  G vector (1/distance) = 0.29499995
  grid = 45 45 250
  stencil order = 5
  estimated absolute RMS force accuracy = 0.00038527262
  estimated relative force accuracy = 1.160237e-06
  using double precision KISS FFT
  3d grid and FFT values/proc = 554040 378675
  generated 45 of 45 mixed pair_coeff terms from arithmetic mixing rule
Total wall time: 6:41:10
