LAMMPS data file via write_data, version 17 Feb 2022, timestep = 0

2970 atoms
10 atom types
72 bonds
6 bond types
108 angles
6 angle types
0 dihedrals
2 dihedral types
18 impropers
2 improper types

0 25.44 xlo xhi
0 25.44 ylo yhi
-41.458422 32.908 zlo zhi

Masses

1 12.011
2 1.008
3 15.9994
4 15.9994
5 1.008
6 55.845
7 55.845
8 15.9994
9 15.9994
10 1.008

Pair Coeffs # lj/cut/coul/long

1 0.0988 3.31521
2 0.0161 2.4473
3 0.1463 3.04812
4 0.093 3.24287
5 0.0047 0.537925
6 9.0298e-07 4.9062
7 9.0298e-07 4.9062
8 0.1554 3.16554
9 0.1554 3.16554
10 0 0

Bond Coeffs # harmonic

1 361.8 1.105
2 652.57 1.218
3 383.13 1.351
4 563.51 0.973
5 554.135 1
6 0 2.08

Angle Coeffs # harmonic

1 51.617 106.55
2 65.93 123.65
3 65.262 109.49
4 115.745 122.1
5 118.817 130.25
6 30 109.47

Dihedral Coeffs # fourier

1 1 2.3 2 180
2 2 2.3 2 180 1.9 1 0

Improper Coeffs # cvff

1 10.5 -1 2
2 10.5 -1 2

Atoms # full

1588 0 8 -1.05 19.198013 20.396275 -6.064752000000009 0 0 0
1376 0 8 -1.05 19.124343 22.516275 -8.184752000000007 0 0 0
1592 0 8 -1.05 21.318013 18.276275000000002 -6.138422000000009 0 0 0
1629 0 8 -1.05 19.124343 24.562604 -6.138422000000009 0 0 0
1340 0 8 -1.05 21.318013 20.322605 -8.184752000000007 0 0 0
1594 0 8 -1.05 23.364342 20.322605 -6.138422000000009 0 0 0
1632 0 8 -1.05 21.244343 22.442605 -6.064752000000009 0 0 0
9 2 7 1.575 2.201178 3.39944 -29.421587 0 0 0
79 2 7 1.575 6.441177999999998 7.639439999999998 -29.421587 0 0 0
1375 0 8 -1.05 17.078013000000002 24.562604 -8.184752000000007 0 0 0
1637 0 8 -1.05 23.438012999999998 24.636274999999998 -6.064752000000009 0 0 0
1627 0 8 -1.05 17.078013000000002 22.516275 -6.138422000000009 0 0 0
1341 0 8 -1.05 23.364342 18.276275000000002 -8.184752000000007 0 0 0
1377 2 7 1.575 19.161178 24.599439999999998 -8.221586999999996 0 0 0
2 2 7 1.575 0.081178 1.2794399999999997 -29.421587 0 0 0
1342 2 7 1.575 23.401177999999998 20.35944 -8.221586999999996 0 0 0
1595 2 6 1.05 23.401177999999998 18.239440000000002 -6.101587000000013 0 0 0
72 2 7 1.575 4.321177999999998 5.519439999999998 -29.421587 0 0 0
1591 2 6 1.05 21.281177999999997 20.35944 -6.101587000000013 0 0 0
12 0 8 -1.05 4.284343 3.4362749999999997 -29.458421999999995 0 0 0
75 0 8 -1.05 4.358012999999998 7.602603999999999 -29.384752000000002 0 0 0
1374 2 7 1.575 17.041178000000002 22.479439999999997 -8.221586999999996 0 0 0
1626 2 6 1.05 17.041178000000002 24.599439999999998 -6.101587000000013 0 0 0
1630 2 6 1.05 19.161178 22.479439999999997 -6.101587000000013 0 0 0
1339 2 7 1.575 21.281177999999997 18.239440000000002 -8.221586999999996 0 0 0
6 0 8 -1.05 2.164343 1.3162749999999996 -29.384752000000002 0 0 0
1383 1 7 1.575 22.341178 23.53944 -7.161587000000008 0 0 0
68 0 8 -1.05 2.238013 5.4826049999999995 -29.458421999999995 0 0 0
76 0 8 -1.05 6.404341999999999 5.556274999999998 -29.384752000000002 0 0 0
1638 1 7 1.575 24.461178 21.41944 -5.0415870000000105 0 0 0
1421 1 7 1.575 20.221178000000002 0.21943999999999877 -5.0415870000000105 0 0 0
1334 1 7 1.575 18.101178 19.29944 -7.161587000000008 0 0 0
5 0 8 -1.05 0.118013 3.362605 -29.384752000000002 0 0 0
1384 0 8 -1.05 23.364342 24.562604 -10.378423000000009 0 0 0
1386 0 8 -1.05 23.438012999999998 22.442605 -8.258421999999992 0 0 0
1077 0 8 -1.05 17.078013000000002 20.322605 -12.424752000000002 0 0 0
18 0 8 -1.05 6.478012999999998 1.242605000000001 -29.458421999999995 0 0 0
1343 0 8 -1.05 23.438012999999998 20.396275 -10.304751999999997 0 0 0
62 0 8 -1.05 0.04434300000000149 7.676274999999998 -29.458421999999995 0 0 0
1380 0 8 -1.05 21.244343 24.636274999999998 -8.258421999999992 0 0 0
140 1 7 1.575 7.5011779999999995 8.69944 -26.241587 0 0 0
15 1 7 1.575 5.381177999999999 2.3394399999999997 -28.361587000000004 0 0 0
65 1 7 1.575 1.1411780000000002 6.579439999999999 -28.361587000000004 0 0 0
70 1 7 1.575 3.261178 4.45944 -26.241587 0 0 0
78 2 6 1.05 6.441177999999998 5.519439999999998 -27.301587 0 0 0
3 2 6 1.05 0.081178 3.39944 -27.301587 0 0 0
73 2 6 1.05 4.321177999999998 7.639439999999998 -27.301587 0 0 0
8 2 6 1.05 2.201178 1.2794399999999997 -27.301587 0 0 0
7 0 8 -1.05 2.164343 3.362605 -27.338423000000002 0 0 0
74 0 8 -1.05 4.358012999999998 5.556274999999998 -27.338423000000002 0 0 0
69 0 8 -1.05 2.238013 7.676274999999998 -27.264751999999998 0 0 0
4 0 8 -1.05 0.118013 1.3162749999999996 -27.338423000000002 0 0 0
71 0 8 -1.05 4.284343 7.676274999999998 -25.218422 0 0 0
19 0 8 -1.05 6.478012999999998 3.4362749999999997 -27.264751999999998 0 0 0
80 0 8 -1.05 6.478012999999998 5.4826049999999995 -25.218422 0 0 0
77 0 8 -1.05 6.404341999999999 7.602603999999999 -27.338423000000002 0 0 0
364 1 7 1.575 1.1411780000000002 2.3394399999999997 -24.121587 0 0 0
452 1 7 1.575 3.261178 8.69944 -22.001587000000004 0 0 0
416 1 7 1.575 7.5011779999999995 4.45944 -22.001587000000004 0 0 0
412 1 7 1.575 5.381177999999999 6.579439999999999 -24.121587 0 0 0
13 2 6 1.05 4.321177999999998 1.2794399999999997 -25.181586999999997 0 0 0
366 2 6 1.05 2.201178 3.39944 -20.941586999999995 0 0 0
414 2 6 1.05 6.441177999999998 7.639439999999998 -20.941586999999995 0 0 0
407 2 6 1.05 2.201178 5.519439999999998 -23.061587 0 0 0
404 2 6 1.05 0.081178 7.639439999999998 -23.061587 0 0 0
63 2 7 1.575 0.081178 5.519439999999998 -25.181586999999997 0 0 0
370 2 7 1.575 4.321177999999998 3.39944 -23.061587 0 0 0
373 2 6 1.05 6.441177999999998 1.2794399999999997 -23.061587 0 0 0
362 2 7 1.575 0.081178 1.2794399999999997 -20.941586999999995 0 0 0
17 2 7 1.575 6.441177999999998 3.39944 -25.181586999999997 0 0 0
67 2 7 1.575 2.201178 7.639439999999998 -25.181586999999997 0 0 0
410 2 7 1.575 4.321177999999998 5.519439999999998 -20.941586999999995 0 0 0
16 0 8 -1.05 6.404341999999999 1.3162749999999996 -25.144751999999993 0 0 0
369 0 8 -1.05 4.284343 3.4362749999999997 -20.978422 0 0 0
411 0 8 -1.05 4.358012999999998 7.602603999999999 -20.904752 0 0 0
405 0 8 -1.05 0.118013 5.556274999999998 -23.098421999999996 0 0 0
415 0 8 -1.05 6.478012999999998 7.676274999999998 -23.024752000000003 0 0 0
64 0 8 -1.05 0.118013 7.602603999999999 -25.144751999999993 0 0 0
409 0 8 -1.05 4.284343 5.4826049999999995 -23.024752000000003 0 0 0
365 0 8 -1.05 2.164343 1.3162749999999996 -20.904752 0 0 0
372 0 8 -1.05 6.404341999999999 3.362605 -23.098421999999996 0 0 0
408 0 8 -1.05 2.238013 5.4826049999999995 -20.978422 0 0 0
413 0 8 -1.05 6.404341999999999 5.556274999999998 -20.904752 0 0 0
14 0 8 -1.05 4.358012999999998 3.362605 -25.144751999999993 0 0 0
406 0 8 -1.05 2.164343 7.602603999999999 -23.098421999999996 0 0 0
371 0 8 -1.05 4.358012999999998 1.3162749999999996 -23.098421999999996 0 0 0
363 0 8 -1.05 0.118013 3.362605 -20.904752 0 0 0
66 0 8 -1.05 2.164343 5.556274999999998 -25.144751999999993 0 0 0
367 0 8 -1.05 2.238013 3.4362749999999997 -23.024752000000003 0 0 0
10 0 8 -1.05 2.238013 1.242605000000001 -25.218422 0 0 0
11 0 8 -1.05 4.284343 1.242605000000001 -27.264751999999998 0 0 0
374 0 8 -1.05 6.478012999999998 1.242605000000001 -20.978422 0 0 0
61 0 8 -1.05 0.04434300000000149 5.4826049999999995 -27.264751999999998 0 0 0
1 0 8 -1.05 0.04434300000000149 3.4362749999999997 -25.218422 0 0 0
403 0 8 -1.05 0.04434300000000149 7.676274999999998 -20.978422 0 0 0
361 0 8 -1.05 0.04434300000000149 1.242605000000001 -23.024752000000003 0 0 0
710 1 7 1.575 7.5011779999999995 8.69944 -17.761587000000002 0 0 0
622 1 7 1.575 5.381177999999999 2.3394399999999997 -19.881586999999993 0 0 0
658 1 7 1.575 1.1411780000000002 6.579439999999999 -19.881586999999993 0 0 0
662 1 7 1.575 3.261178 4.45944 -17.761587000000002 0 0 0
667 2 6 1.05 6.441177999999998 5.519439999999998 -18.821587000000005 0 0 0
614 2 6 1.05 0.081178 3.39944 -18.821587000000005 0 0 0
664 2 7 1.575 4.321177999999998 7.639439999999998 -18.821587000000005 0 0 0
617 2 7 1.575 2.201178 1.2794399999999997 -18.821587000000005 0 0 0
616 0 8 -1.05 2.164343 3.362605 -18.858423000000005 0 0 0
665 0 8 -1.05 4.358012999999998 5.556274999999998 -18.858423000000005 0 0 0
661 0 8 -1.05 2.238013 7.676274999999998 -18.784752000000008 0 0 0
615 0 8 -1.05 0.118013 1.3162749999999996 -18.858423000000005 0 0 0
663 0 8 -1.05 4.284343 7.676274999999998 -16.738422000000003 0 0 0
625 0 8 -1.05 6.478012999999998 3.4362749999999997 -18.784752000000008 0 0 0
668 0 8 -1.05 6.478012999999998 5.4826049999999995 -16.738422000000003 0 0 0
666 0 8 -1.05 6.404341999999999 7.602603999999999 -18.858423000000005 0 0 0
868 1 7 1.575 1.1411780000000002 2.3394399999999997 -15.641586999999998 0 0 0
962 1 7 1.575 3.261178 8.69944 -13.521587000000004 0 0 0
924 1 7 1.575 7.5011779999999995 4.45944 -13.521587000000004 0 0 0
920 1 7 1.575 5.381177999999999 6.579439999999999 -15.641586999999998 0 0 0
620 2 7 1.575 4.321177999999998 1.2794399999999997 -16.701587 0 0 0
915 2 6 1.05 2.201178 5.519439999999998 -14.581587000000003 0 0 0
911 2 7 1.575 0.081178 7.639439999999998 -14.581587000000003 0 0 0
656 2 6 1.05 0.081178 5.519439999999998 -16.701587 0 0 0
874 2 7 1.575 4.321177999999998 3.39944 -14.581587000000003 0 0 0
878 2 6 1.05 6.441177999999998 1.2794399999999997 -14.581587000000003 0 0 0
624 2 6 1.05 6.441177999999998 3.39944 -16.701587 0 0 0
660 2 7 1.575 2.201178 7.639439999999998 -16.701587 0 0 0
623 0 8 -1.05 6.404341999999999 1.3162749999999996 -16.664751999999996 0 0 0
873 0 8 -1.05 4.284343 3.4362749999999997 -12.498421999999998 0 0 0
912 0 8 -1.05 0.118013 5.556274999999998 -14.618421999999995 0 0 0
923 0 8 -1.05 6.478012999999998 7.676274999999998 -14.544752000000003 0 0 0
657 0 8 -1.05 0.118013 7.602603999999999 -16.664751999999996 0 0 0
917 0 8 -1.05 4.284343 5.4826049999999995 -14.544752000000003 0 0 0
877 0 8 -1.05 6.404341999999999 3.362605 -14.618421999999995 0 0 0
916 0 8 -1.05 2.238013 5.4826049999999995 -12.498421999999998 0 0 0
621 0 8 -1.05 4.358012999999998 3.362605 -16.664751999999996 0 0 0
914 0 8 -1.05 2.164343 7.602603999999999 -14.618421999999995 0 0 0
875 0 8 -1.05 4.358012999999998 1.3162749999999996 -14.618421999999995 0 0 0
659 0 8 -1.05 2.164343 5.556274999999998 -16.664751999999996 0 0 0
871 0 8 -1.05 2.238013 3.4362749999999997 -14.544752000000003 0 0 0
618 0 8 -1.05 2.238013 1.242605000000001 -16.738422000000003 0 0 0
619 0 8 -1.05 4.284343 1.242605000000001 -18.784752000000008 0 0 0
879 0 8 -1.05 6.478012999999998 1.242605000000001 -12.498421999999998 0 0 0
655 0 8 -1.05 0.04434300000000149 5.4826049999999995 -18.784752000000008 0 0 0
613 0 8 -1.05 0.04434300000000149 3.4362749999999997 -16.738422000000003 0 0 0
910 0 8 -1.05 0.04434300000000149 7.676274999999998 -12.498421999999998 0 0 0
865 0 8 -1.05 0.04434300000000149 1.242605000000001 -14.544752000000003 0 0 0
1232 1 7 1.575 7.5011779999999995 8.69944 -9.281586999999998 0 0 0
876 1 7 1.575 5.381177999999999 2.3394399999999997 -11.401587000000003 0 0 0
913 1 7 1.575 1.1411780000000002 6.579439999999999 -11.401587000000003 0 0 0
1183 1 7 1.575 3.261178 4.45944 -9.281586999999998 0 0 0
870 2 6 1.05 2.201178 3.39944 -12.461587000000009 0 0 0
922 2 6 1.05 6.441177999999998 7.639439999999998 -12.461587000000009 0 0 0
1189 2 6 1.05 6.441177999999998 5.519439999999998 -10.341587 0 0 0
1136 2 7 1.575 0.081178 3.39944 -10.341587 0 0 0
1185 2 7 1.575 4.321177999999998 7.639439999999998 -10.341587 0 0 0
1140 2 6 1.05 2.201178 1.2794399999999997 -10.341587 0 0 0
866 2 7 1.575 0.081178 1.2794399999999997 -12.461587000000009 0 0 0
918 2 7 1.575 4.321177999999998 5.519439999999998 -12.461587000000009 0 0 0
919 0 8 -1.05 4.358012999999998 7.602603999999999 -12.424752000000002 0 0 0
1139 0 8 -1.05 2.164343 3.362605 -10.378423000000009 0 0 0
1186 0 8 -1.05 4.358012999999998 5.556274999999998 -10.378423000000009 0 0 0
869 0 8 -1.05 2.164343 1.3162749999999996 -12.424752000000002 0 0 0
1182 0 8 -1.05 2.238013 7.676274999999998 -10.304751999999997 0 0 0
1137 0 8 -1.05 0.118013 1.3162749999999996 -10.378423000000009 0 0 0
921 0 8 -1.05 6.404341999999999 5.556274999999998 -12.424752000000002 0 0 0
1184 0 8 -1.05 4.284343 7.676274999999998 -8.258421999999992 0 0 0
1147 0 8 -1.05 6.478012999999998 3.4362749999999997 -10.304751999999997 0 0 0
867 0 8 -1.05 0.118013 3.362605 -12.424752000000002 0 0 0
1190 0 8 -1.05 6.478012999999998 5.4826049999999995 -8.258421999999992 0 0 0
1188 0 8 -1.05 6.404341999999999 7.602603999999999 -10.378423000000009 0 0 0
1138 1 7 1.575 1.1411780000000002 2.3394399999999997 -7.161587000000008 0 0 0
1477 1 7 1.575 3.261178 8.69944 -5.0415870000000105 0 0 0
1442 1 7 1.575 7.5011779999999995 4.45944 -5.0415870000000105 0 0 0
1187 1 7 1.575 5.381177999999999 6.579439999999999 -7.161587000000008 0 0 0
1143 2 7 1.575 4.321177999999998 1.2794399999999997 -8.221586999999996 0 0 0
1434 2 7 1.575 2.201178 5.519439999999998 -6.101587000000013 0 0 0
1430 2 7 1.575 0.081178 7.639439999999998 -6.101587000000013 0 0 0
1178 2 6 1.05 0.081178 5.519439999999998 -8.221586999999996 0 0 0
1395 2 6 1.05 4.321177999999998 3.39944 -6.101587000000013 0 0 0
1399 2 6 1.05 6.441177999999998 1.2794399999999997 -6.101587000000013 0 0 0
1146 2 7 1.575 6.441177999999998 3.39944 -8.221586999999996 0 0 0
1181 2 6 1.05 2.201178 7.639439999999998 -8.221586999999996 0 0 0
1145 0 8 -1.05 6.404341999999999 1.3162749999999996 -8.184752000000007 0 0 0
1431 0 8 -1.05 0.118013 5.556274999999998 -6.138422000000009 0 0 0
1441 0 8 -1.05 6.478012999999998 7.676274999999998 -6.064752000000009 0 0 0
1179 0 8 -1.05 0.118013 7.602603999999999 -8.184752000000007 0 0 0
1436 0 8 -1.05 4.284343 5.4826049999999995 -6.064752000000009 0 0 0
1398 0 8 -1.05 6.404341999999999 3.362605 -6.138422000000009 0 0 0
1144 0 8 -1.05 4.358012999999998 3.362605 -8.184752000000007 0 0 0
1433 0 8 -1.05 2.164343 7.602603999999999 -6.138422000000009 0 0 0
1396 0 8 -1.05 4.358012999999998 1.3162749999999996 -6.138422000000009 0 0 0
1180 0 8 -1.05 2.164343 5.556274999999998 -8.184752000000007 0 0 0
1392 0 8 -1.05 2.238013 3.4362749999999997 -6.064752000000009 0 0 0
1141 0 8 -1.05 2.238013 1.242605000000001 -8.258421999999992 0 0 0
1142 0 8 -1.05 4.284343 1.242605000000001 -10.304751999999997 0 0 0
1177 0 8 -1.05 0.04434300000000149 5.4826049999999995 -10.304751999999997 0 0 0
1135 0 8 -1.05 0.04434300000000149 3.4362749999999997 -8.258421999999992 0 0 0
1387 0 8 -1.05 0.04434300000000149 1.242605000000001 -6.064752000000009 0 0 0
1131 0 8 -1.05 23.364342 22.516275 -12.424752000000002 0 0 0
1333 0 8 -1.05 17.078013000000002 18.276275000000002 -10.378423000000009 0 0 0
1378 0 8 -1.05 19.198013 24.636274999999998 -10.304751999999997 0 0 0
1079 0 8 -1.05 19.124343 18.276275000000002 -12.424752000000002 0 0 0
1382 0 8 -1.05 21.318013 22.516275 -10.378423000000009 0 0 0
1335 0 8 -1.05 19.124343 20.322605 -10.378423000000009 0 0 0
1129 0 8 -1.05 21.318013 24.562604 -12.424752000000002 0 0 0
1128 2 7 1.575 21.281177999999997 22.479439999999997 -12.461587000000009 0 0 0
1076 2 6 1.05 17.041178000000002 18.239440000000002 -12.461587000000009 0 0 0
1336 2 6 1.05 19.161178 18.239440000000002 -10.341587 0 0 0
1381 2 7 1.575 21.281177999999997 24.599439999999998 -10.341587 0 0 0
1332 2 7 1.575 17.041178000000002 20.35944 -10.341587 0 0 0
1385 2 6 1.05 23.401177999999998 22.479439999999997 -10.341587 0 0 0
1132 2 6 1.05 23.401177999999998 24.599439999999998 -12.461587000000009 0 0 0
1080 2 7 1.575 19.161178 20.35944 -12.461587000000009 0 0 0
1379 1 7 1.575 20.221178000000002 21.41944 -9.281586999999998 0 0 0
1123 1 7 1.575 18.101178 23.53944 -11.401587000000003 0 0 0
1086 1 7 1.575 22.341178 19.29944 -11.401587000000003 0 0 0
1176 1 7 1.575 24.461178 0.21943999999999877 -9.281586999999998 0 0 0
1338 0 8 -1.05 21.244343 18.202605 -10.304751999999997 0 0 0
1337 0 8 -1.05 19.198013 18.202605 -8.258421999999992 0 0 0
1331 0 8 -1.05 17.004343 20.396275 -8.258421999999992 0 0 0
1373 0 8 -1.05 17.004343 22.442605 -10.304751999999997 0 0 0
1583 0 8 -1.05 17.004343 18.202605 -6.064752000000009 0 0 0
1081 0 8 -1.05 19.198013 20.396275 -14.544752000000003 0 0 0
855 0 8 -1.05 19.124343 22.516275 -16.664751999999996 0 0 0
1085 0 8 -1.05 21.318013 18.276275000000002 -14.618421999999995 0 0 0
1124 0 8 -1.05 19.124343 24.562604 -14.618421999999995 0 0 0
817 0 8 -1.05 21.318013 20.322605 -16.664751999999996 0 0 0
1126 0 8 -1.05 19.198013 22.442605 -12.498421999999998 0 0 0
1087 0 8 -1.05 23.364342 20.322605 -14.618421999999995 0 0 0
1127 0 8 -1.05 21.244343 22.442605 -14.544752000000003 0 0 0
853 0 8 -1.05 17.078013000000002 24.562604 -16.664751999999996 0 0 0
1133 0 8 -1.05 23.438012999999998 24.636274999999998 -14.544752000000003 0 0 0
1122 0 8 -1.05 17.078013000000002 22.516275 -14.618421999999995 0 0 0
1083 0 8 -1.05 21.244343 20.396275 -12.498421999999998 0 0 0
819 0 8 -1.05 23.364342 18.276275000000002 -16.664751999999996 0 0 0
856 2 7 1.575 19.161178 24.599439999999998 -16.701587 0 0 0
820 2 7 1.575 23.401177999999998 20.35944 -16.701587 0 0 0
1088 2 6 1.05 23.401177999999998 18.239440000000002 -14.581587000000003 0 0 0
1084 2 6 1.05 21.281177999999997 20.35944 -14.581587000000003 0 0 0
852 2 7 1.575 17.041178000000002 22.479439999999997 -16.701587 0 0 0
1121 2 6 1.05 17.041178000000002 24.599439999999998 -14.581587000000003 0 0 0
1125 2 6 1.05 19.161178 22.479439999999997 -14.581587000000003 0 0 0
816 2 7 1.575 21.281177999999997 18.239440000000002 -16.701587 0 0 0
1130 1 7 1.575 22.341178 23.53944 -15.641586999999998 0 0 0
1134 1 7 1.575 24.461178 21.41944 -13.521587000000004 0 0 0
902 1 7 1.575 20.221178000000002 0.21943999999999877 -13.521587000000004 0 0 0
1078 1 7 1.575 18.101178 19.29944 -15.641586999999998 0 0 0
862 0 8 -1.05 23.364342 24.562604 -18.858423000000005 0 0 0
864 0 8 -1.05 23.438012999999998 22.442605 -16.738422000000003 0 0 0
821 0 8 -1.05 23.438012999999998 20.396275 -18.784752000000008 0 0 0
859 0 8 -1.05 21.244343 24.636274999999998 -16.738422000000003 0 0 0
811 0 8 -1.05 17.078013000000002 18.276275000000002 -18.858423000000005 0 0 0
857 0 8 -1.05 19.198013 24.636274999999998 -18.784752000000008 0 0 0
861 0 8 -1.05 21.318013 22.516275 -18.858423000000005 0 0 0
812 0 8 -1.05 19.124343 20.322605 -18.858423000000005 0 0 0
813 2 7 1.575 19.161178 18.239440000000002 -18.821587000000005 0 0 0
860 2 6 1.05 21.281177999999997 24.599439999999998 -18.821587000000005 0 0 0
810 2 6 1.05 17.041178000000002 20.35944 -18.821587000000005 0 0 0
863 2 6 1.05 23.401177999999998 22.479439999999997 -18.821587000000005 0 0 0
858 1 7 1.575 20.221178000000002 21.41944 -17.761587000000002 0 0 0
854 1 7 1.575 18.101178 23.53944 -19.881586999999993 0 0 0
818 1 7 1.575 22.341178 19.29944 -19.881586999999993 0 0 0
654 1 7 1.575 24.461178 0.21943999999999877 -17.761587000000002 0 0 0
1089 0 8 -1.05 23.438012999999998 18.202605 -12.498421999999998 0 0 0
815 0 8 -1.05 21.244343 18.202605 -18.784752000000008 0 0 0
814 0 8 -1.05 19.198013 18.202605 -16.738422000000003 0 0 0
1120 0 8 -1.05 17.004343 24.636274999999998 -12.498421999999998 0 0 0
809 0 8 -1.05 17.004343 20.396275 -16.738422000000003 0 0 0
851 0 8 -1.05 17.004343 22.442605 -18.784752000000008 0 0 0
1075 0 8 -1.05 17.004343 18.202605 -14.544752000000003 0 0 0
563 0 8 -1.05 19.198013 20.396275 -23.024752000000003 0 0 0
346 0 8 -1.05 19.124343 22.516275 -25.144751999999993 0 0 0
559 0 8 -1.05 17.078013000000002 20.322605 -20.904752 0 0 0
567 0 8 -1.05 21.318013 18.276275000000002 -23.098421999999996 0 0 0
602 0 8 -1.05 19.124343 24.562604 -23.098421999999996 0 0 0
294 0 8 -1.05 21.318013 20.322605 -25.144751999999993 0 0 0
609 0 8 -1.05 23.364342 22.516275 -20.904752 0 0 0
604 0 8 -1.05 19.198013 22.442605 -20.978422 0 0 0
568 0 8 -1.05 23.364342 20.322605 -23.098421999999996 0 0 0
561 0 8 -1.05 19.124343 18.276275000000002 -20.904752 0 0 0
605 0 8 -1.05 21.244343 22.442605 -23.024752000000003 0 0 0
344 0 8 -1.05 17.078013000000002 24.562604 -25.144751999999993 0 0 0
611 0 8 -1.05 23.438012999999998 24.636274999999998 -23.024752000000003 0 0 0
601 0 8 -1.05 17.078013000000002 22.516275 -23.098421999999996 0 0 0
607 0 8 -1.05 21.318013 24.562604 -20.904752 0 0 0
565 0 8 -1.05 21.244343 20.396275 -20.978422 0 0 0
296 0 8 -1.05 23.364342 18.276275000000002 -25.144751999999993 0 0 0
606 2 7 1.575 21.281177999999997 22.479439999999997 -20.941586999999995 0 0 0
347 2 7 1.575 19.161178 24.599439999999998 -25.181586999999997 0 0 0
297 2 6 1.05 23.401177999999998 20.35944 -25.181586999999997 0 0 0
558 2 7 1.575 17.041178000000002 18.239440000000002 -20.941586999999995 0 0 0
569 2 6 1.05 23.401177999999998 18.239440000000002 -23.061587 0 0 0
566 2 7 1.575 21.281177999999997 20.35944 -23.061587 0 0 0
343 2 6 1.05 17.041178000000002 22.479439999999997 -25.181586999999997 0 0 0
600 2 7 1.575 17.041178000000002 24.599439999999998 -23.061587 0 0 0
138 0 8 -1.05 6.478012999999998 9.722605 -29.458421999999995 0 0 0
603 2 6 1.05 19.161178 22.479439999999997 -23.061587 0 0 0
610 2 7 1.575 23.401177999999998 24.599439999999998 -20.941586999999995 0 0 0
562 2 6 1.05 19.161178 20.35944 -20.941586999999995 0 0 0
293 2 7 1.575 21.281177999999997 18.239440000000002 -25.181586999999997 0 0 0
608 1 7 1.575 22.341178 23.53944 -24.121587 0 0 0
612 1 7 1.575 24.461178 21.41944 -22.001587000000004 0 0 0
396 1 7 1.575 20.221178000000002 0.21943999999999877 -22.001587000000004 0 0 0
129 2 7 1.575 2.201178 11.87944 -29.421587 0 0 0
199 2 6 1.05 6.441177999999998 16.119439999999997 -29.421587 0 0 0
560 1 7 1.575 18.101178 19.29944 -24.121587 0 0 0
357 0 8 -1.05 23.364342 24.562604 -27.338423000000002 0 0 0
360 0 8 -1.05 23.438012999999998 22.442605 -25.218422 0 0 0
299 0 8 -1.05 23.438012999999998 20.396275 -27.264751999999998 0 0 0
351 0 8 -1.05 21.244343 24.636274999999998 -25.218422 0 0 0
122 2 6 1.05 0.081178 9.75944 -29.421587 0 0 0
284 0 8 -1.05 17.078013000000002 18.276275000000002 -27.338423000000002 0 0 0
349 0 8 -1.05 19.198013 24.636274999999998 -27.264751999999998 0 0 0
192 2 6 1.05 4.321177999999998 13.999439999999998 -29.421587 0 0 0
354 0 8 -1.05 21.318013 22.516275 -27.338423000000002 0 0 0
132 0 8 -1.05 4.284343 11.916275 -29.458421999999995 0 0 0
195 0 8 -1.05 4.358012999999998 16.082604 -29.384752000000002 0 0 0
287 0 8 -1.05 19.124343 20.322605 -27.338423000000002 0 0 0
288 2 6 1.05 19.161178 18.239440000000002 -27.301587 0 0 0
353 2 6 1.05 21.281177999999997 24.599439999999998 -27.301587 0 0 0
283 2 6 1.05 17.041178000000002 20.35944 -27.301587 0 0 0
126 0 8 -1.05 2.164343 9.796275 -29.384752000000002 0 0 0
358 2 6 1.05 23.401177999999998 22.479439999999997 -27.301587 0 0 0
188 0 8 -1.05 2.238013 13.962605 -29.458421999999995 0 0 0
196 0 8 -1.05 6.404341999999999 14.036274999999998 -29.384752000000002 0 0 0
350 1 7 1.575 20.221178000000002 21.41944 -26.241587 0 0 0
345 1 7 1.575 18.101178 23.53944 -28.361587000000004 0 0 0
295 1 7 1.575 22.341178 19.29944 -28.361587000000004 0 0 0
125 0 8 -1.05 0.118013 11.842605 -29.384752000000002 0 0 0
60 1 7 1.575 24.461178 0.21943999999999877 -26.241587 0 0 0
570 0 8 -1.05 23.438012999999998 18.202605 -20.978422 0 0 0
291 0 8 -1.05 21.244343 18.202605 -27.264751999999998 0 0 0
290 0 8 -1.05 19.198013 18.202605 -25.218422 0 0 0
182 0 8 -1.05 0.04434300000000149 16.156274999999997 -29.458421999999995 0 0 0
130 0 8 -1.05 2.238013 9.722605 -25.218422 0 0 0
131 0 8 -1.05 4.284343 9.722605 -27.264751999999998 0 0 0
458 0 8 -1.05 6.478012999999998 9.722605 -20.978422 0 0 0
260 1 7 1.575 7.5011779999999995 17.17944 -26.241587 0 0 0
135 1 7 1.575 5.381177999999999 10.81944 -28.361587000000004 0 0 0
185 1 7 1.575 1.1411780000000002 15.059439999999999 -28.361587000000004 0 0 0
190 1 7 1.575 3.261178 12.939440000000001 -26.241587 0 0 0
198 2 7 1.575 6.441177999999998 13.999439999999998 -27.301587 0 0 0
123 2 7 1.575 0.081178 11.87944 -27.301587 0 0 0
193 2 6 1.05 4.321177999999998 16.119439999999997 -27.301587 0 0 0
128 2 6 1.05 2.201178 9.75944 -27.301587 0 0 0
127 0 8 -1.05 2.164343 11.842605 -27.338423000000002 0 0 0
194 0 8 -1.05 4.358012999999998 14.036274999999998 -27.338423000000002 0 0 0
189 0 8 -1.05 2.238013 16.156274999999997 -27.264751999999998 0 0 0
124 0 8 -1.05 0.118013 9.796275 -27.338423000000002 0 0 0
191 0 8 -1.05 4.284343 16.156274999999997 -25.218422 0 0 0
139 0 8 -1.05 6.478012999999998 11.916275 -27.264751999999998 0 0 0
200 0 8 -1.05 6.478012999999998 13.962605 -25.218422 0 0 0
197 0 8 -1.05 6.404341999999999 16.082604 -27.338423000000002 0 0 0
448 1 7 1.575 1.1411780000000002 10.81944 -24.121587 0 0 0
536 1 7 1.575 3.261178 17.17944 -22.001587000000004 0 0 0
500 1 7 1.575 7.5011779999999995 12.939440000000001 -22.001587000000004 0 0 0
496 1 7 1.575 5.381177999999999 15.059439999999999 -24.121587 0 0 0
133 2 7 1.575 4.321177999999998 9.75944 -25.181586999999997 0 0 0
450 2 7 1.575 2.201178 11.87944 -20.941586999999995 0 0 0
498 2 7 1.575 6.441177999999998 16.119439999999997 -20.941586999999995 0 0 0
491 2 6 1.05 2.201178 13.999439999999998 -23.061587 0 0 0
488 2 7 1.575 0.081178 16.119439999999997 -23.061587 0 0 0
183 2 6 1.05 0.081178 13.999439999999998 -25.181586999999997 0 0 0
454 2 7 1.575 4.321177999999998 11.87944 -23.061587 0 0 0
457 2 6 1.05 6.441177999999998 9.75944 -23.061587 0 0 0
446 2 7 1.575 0.081178 9.75944 -20.941586999999995 0 0 0
137 2 6 1.05 6.441177999999998 11.87944 -25.181586999999997 0 0 0
187 2 7 1.575 2.201178 16.119439999999997 -25.181586999999997 0 0 0
494 2 6 1.05 4.321177999999998 13.999439999999998 -20.941586999999995 0 0 0
136 0 8 -1.05 6.404341999999999 9.796275 -25.144751999999993 0 0 0
453 0 8 -1.05 4.284343 11.916275 -20.978422 0 0 0
495 0 8 -1.05 4.358012999999998 16.082604 -20.904752 0 0 0
489 0 8 -1.05 0.118013 14.036274999999998 -23.098421999999996 0 0 0
499 0 8 -1.05 6.478012999999998 16.156274999999997 -23.024752000000003 0 0 0
184 0 8 -1.05 0.118013 16.082604 -25.144751999999993 0 0 0
493 0 8 -1.05 4.284343 13.962605 -23.024752000000003 0 0 0
449 0 8 -1.05 2.164343 9.796275 -20.904752 0 0 0
456 0 8 -1.05 6.404341999999999 11.842605 -23.098421999999996 0 0 0
492 0 8 -1.05 2.238013 13.962605 -20.978422 0 0 0
497 0 8 -1.05 6.404341999999999 14.036274999999998 -20.904752 0 0 0
134 0 8 -1.05 4.358012999999998 11.842605 -25.144751999999993 0 0 0
490 0 8 -1.05 2.164343 16.082604 -23.098421999999996 0 0 0
455 0 8 -1.05 4.358012999999998 9.796275 -23.098421999999996 0 0 0
447 0 8 -1.05 0.118013 11.842605 -20.904752 0 0 0
186 0 8 -1.05 2.164343 14.036274999999998 -25.144751999999993 0 0 0
451 0 8 -1.05 2.238013 11.916275 -23.024752000000003 0 0 0
445 0 8 -1.05 0.04434300000000149 9.722605 -23.024752000000003 0 0 0
181 0 8 -1.05 0.04434300000000149 13.962605 -27.264751999999998 0 0 0
121 0 8 -1.05 0.04434300000000149 11.916275 -25.218422 0 0 0
487 0 8 -1.05 0.04434300000000149 16.156274999999997 -20.978422 0 0 0
702 0 8 -1.05 2.238013 9.722605 -16.738422000000003 0 0 0
703 0 8 -1.05 4.284343 9.722605 -18.784752000000008 0 0 0
969 0 8 -1.05 6.478012999999998 9.722605 -12.498421999999998 0 0 0
794 1 7 1.575 7.5011779999999995 17.17944 -17.761587000000002 0 0 0
706 1 7 1.575 5.381177999999999 10.81944 -19.881586999999993 0 0 0
742 1 7 1.575 1.1411780000000002 15.059439999999999 -19.881586999999993 0 0 0
746 1 7 1.575 3.261178 12.939440000000001 -17.761587000000002 0 0 0
751 2 7 1.575 6.441177999999998 13.999439999999998 -18.821587000000005 0 0 0
698 2 6 1.05 0.081178 11.87944 -18.821587000000005 0 0 0
748 2 6 1.05 4.321177999999998 16.119439999999997 -18.821587000000005 0 0 0
701 2 6 1.05 2.201178 9.75944 -18.821587000000005 0 0 0
700 0 8 -1.05 2.164343 11.842605 -18.858423000000005 0 0 0
749 0 8 -1.05 4.358012999999998 14.036274999999998 -18.858423000000005 0 0 0
745 0 8 -1.05 2.238013 16.156274999999997 -18.784752000000008 0 0 0
699 0 8 -1.05 0.118013 9.796275 -18.858423000000005 0 0 0
747 0 8 -1.05 4.284343 16.156274999999997 -16.738422000000003 0 0 0
709 0 8 -1.05 6.478012999999998 11.916275 -18.784752000000008 0 0 0
752 0 8 -1.05 6.478012999999998 13.962605 -16.738422000000003 0 0 0
750 0 8 -1.05 6.404341999999999 16.082604 -18.858423000000005 0 0 0
958 1 7 1.575 1.1411780000000002 10.81944 -15.641586999999998 0 0 0
1052 1 7 1.575 3.261178 17.17944 -13.521587000000004 0 0 0
1014 1 7 1.575 7.5011779999999995 12.939440000000001 -13.521587000000004 0 0 0
1010 1 7 1.575 5.381177999999999 15.059439999999999 -15.641586999999998 0 0 0
704 2 6 1.05 4.321177999999998 9.75944 -16.701587 0 0 0
1005 2 6 1.05 2.201178 13.999439999999998 -14.581587000000003 0 0 0
1001 2 6 1.05 0.081178 16.119439999999997 -14.581587000000003 0 0 0
740 2 7 1.575 0.081178 13.999439999999998 -16.701587 0 0 0
964 2 7 1.575 4.321177999999998 11.87944 -14.581587000000003 0 0 0
968 2 6 1.05 6.441177999999998 9.75944 -14.581587000000003 0 0 0
708 2 7 1.575 6.441177999999998 11.87944 -16.701587 0 0 0
744 2 7 1.575 2.201178 16.119439999999997 -16.701587 0 0 0
707 0 8 -1.05 6.404341999999999 9.796275 -16.664751999999996 0 0 0
963 0 8 -1.05 4.284343 11.916275 -12.498421999999998 0 0 0
1002 0 8 -1.05 0.118013 14.036274999999998 -14.618421999999995 0 0 0
1013 0 8 -1.05 6.478012999999998 16.156274999999997 -14.544752000000003 0 0 0
741 0 8 -1.05 0.118013 16.082604 -16.664751999999996 0 0 0
1007 0 8 -1.05 4.284343 13.962605 -14.544752000000003 0 0 0
967 0 8 -1.05 6.404341999999999 11.842605 -14.618421999999995 0 0 0
1006 0 8 -1.05 2.238013 13.962605 -12.498421999999998 0 0 0
705 0 8 -1.05 4.358012999999998 11.842605 -16.664751999999996 0 0 0
1004 0 8 -1.05 2.164343 16.082604 -14.618421999999995 0 0 0
965 0 8 -1.05 4.358012999999998 9.796275 -14.618421999999995 0 0 0
743 0 8 -1.05 2.164343 14.036274999999998 -16.664751999999996 0 0 0
961 0 8 -1.05 2.238013 11.916275 -14.544752000000003 0 0 0
955 0 8 -1.05 0.04434300000000149 9.722605 -14.544752000000003 0 0 0
739 0 8 -1.05 0.04434300000000149 13.962605 -18.784752000000008 0 0 0
697 0 8 -1.05 0.04434300000000149 11.916275 -16.738422000000003 0 0 0
1000 0 8 -1.05 0.04434300000000149 16.156274999999997 -12.498421999999998 0 0 0
1225 0 8 -1.05 2.238013 9.722605 -8.258421999999992 0 0 0
1226 0 8 -1.05 4.284343 9.722605 -10.304751999999997 0 0 0
1316 1 7 1.575 7.5011779999999995 17.17944 -9.281586999999998 0 0 0
966 1 7 1.575 5.381177999999999 10.81944 -11.401587000000003 0 0 0