LAMMPS data file via write_data, version 17 Feb 2022, timestep = 19

4230 atoms
10 atom types
72 bonds
6 bond types
108 angles
6 angle types
0 dihedrals
2 dihedral types
18 impropers
2 improper types

0.239999 25.679999000000002 xlo xhi
0.239999 25.679999000000002 ylo yhi
-32.391176 66.805898 zlo zhi

Masses

1 12.011
2 1.008
3 15.9994
4 15.9994
5 1.008
6 55.845
7 55.845
8 15.9994
9 15.9994
10 1.008

Pair Coeffs # lj/cut/coul/long

1 0.0988 3.31521
2 0.0161 2.4473
3 0.1463 3.04812
4 0.093 3.24287
5 0.0047 0.537925
6 9.0298e-07 4.9062
7 9.0298e-07 4.9062
8 0.1554 3.16554
9 0.1554 3.16554
10 0 0

Bond Coeffs # harmonic

1 361.8 1.105
2 652.57 1.218
3 383.13 1.351
4 563.51 0.973
5 554.135 1
6 0 2.08

Angle Coeffs # harmonic

1 51.617 106.55
2 65.93 123.65
3 65.262 109.49
4 115.745 122.1
5 118.817 130.25
6 30 109.47

Dihedral Coeffs # fourier

1 1 2.3 2 180
2 2 2.3 2 180 1.9 1 0

Improper Coeffs # cvff

1 10.5 -1 2
2 10.5 -1 2

Atoms # full

466 0 1 0.731 1.3749048741261287 5.501984060120304 -19.46305152209082 0 0 0
467 0 2 -0.123 1.2787513975465643 5.597136158212715 -20.554531055542565 0 0 0
468 0 3 -0.804 2.1766893756962777 6.206620295845757 -18.87627397194855 0 0 0
469 0 3 -0.804 0.6592210112922707 4.700022868743768 -18.87769669386343 0 0 0
936 0 1 0.731 9.854426568180596 5.502468561042022 -19.460116647073885 0 0 0
937 0 2 -0.123 9.748200974372336 5.586882355909281 -20.551439436161015 0 0 0
938 0 3 -0.804 10.664689499189322 6.215149266245783 -18.888639444760056 0 0 0
939 0 3 -0.804 9.146409614931764 4.709413435776668 -18.859773959759426 0 0 0
1406 0 1 0.731 18.332371636478474 5.502509295582754 -19.464882876519297 0 0 0
1407 0 2 -0.123 18.230890156229055 5.587500631677173 -20.55655807465921 0 0 0
1408 0 3 -0.804 19.136480413197436 6.217412190680482 -18.888750498221704 0 0 0
1409 0 3 -0.804 17.6244217877292 4.706373275859074 -18.86797628364915 0 0 0
1876 0 1 0.731 1.3748150887804316 13.982371837591096 -19.471673864503646 0 0 0
1877 0 2 -0.123 1.28553765150812 14.081069775554553 -20.56349380479375 0 0 0
1878 0 3 -0.804 2.1682335077605446 14.693975050256498 -18.877380157073205 0 0 0
1879 0 3 -0.804 0.6634959437786807 13.176481588067249 -18.89249965579709 0 0 0
2346 0 1 0.731 9.860229315964471 13.98761242870199 -19.457582165309933 0 0 0
2347 0 2 -0.123 9.76657361964474 14.084472240768006 -20.549055008687507 0 0 0
2348 0 3 -0.804 10.665967855095808 14.695194517226719 -18.87136474703906 0 0 0
2349 0 3 -0.804 9.146096337677738 13.190335494693183 -18.87195172888681 0 0 0
2816 0 1 0.731 18.341621697036278 13.983129510260317 -19.468233618146908 0 0 0
2817 0 2 -0.123 18.24337312332066 14.081348137025312 -20.559323113788 0 0 0
2818 0 3 -0.804 19.1453770260668 14.690449086459076 -18.881741613703568 0 0 0
2819 0 3 -0.804 17.630266865351228 13.182775368864998 -18.881777695510287 0 0 0
3286 0 1 0.731 1.3658252925783405 22.4508743524895 -19.460911293723026 0 0 0
3287 0 2 -0.123 1.2634979207466521 22.541355221791672 -20.55224229803751 0 0 0
3288 0 3 -0.804 2.1744220498021813 23.16106167627038 -18.883641199262783 0 0 0
3289 0 3 -0.804 0.6559843698952044 21.655669871735395 -18.865680142810554 0 0 0
3756 0 1 0.731 9.854808121349153 22.460751893329913 -19.46174401258442 0 0 0
3757 0 2 -0.123 9.756137824719644 22.555748358532476 -20.552904866183344 0 0 0
3758 0 3 -0.804 10.658332388527526 23.174144009385298 -18.878487945906656 0 0 0
3759 0 3 -0.804 9.148817096125908 21.65945461991569 -18.87309908394936 0 0 0
4226 0 1 0.731 18.33070267350137 22.45540180458637 -19.45672693221511 0 0 0
4227 0 2 -0.123 18.23165859183211 22.55105652801301 -20.547906446256352 0 0 0
4228 0 3 -0.804 19.136207598457958 23.168062704485425 -18.87458254538177 0 0 0
4229 0 3 -0.804 17.624357947830443 21.655196202231135 -18.867005275564456 0 0 0
25 0 8 -1.05 2.4986611213868635 8.618529579830104 -16.61277600434436 0 0 0
33 0 8 -1.05 8.60452661203008 2.549865559415841 -16.57609837694496 0 0 0
45 0 8 -1.05 4.328056080211704 6.757560105563854 -16.56578160087864 0 0 0
54 0 8 -1.05 6.738573209597702 4.378922103589027 -16.59763935179559 0 0 0
57 1 7 1.575 1.2923970618605773 1.3109999630676827 -15.72084557760113 0 0 0
63 1 6 1.575 5.559452629657613 5.581245945395715 -15.705921121406101 0 0 0
65 2 7 1.575 4.464670913882448 0.2534775251675652 -16.676637062850823 0 0 0
69 2 7 1.575 2.3859777191744946 4.508206835887405 -14.546311781800652 0 0 0
70 2 7 1.575 0.2563867829344684 6.59635148396785 -14.593172341246767 0 0 0
72 2 7 1.575 25.66932336518727 4.517954958524727 -17.02006106707572 -1 0 0
73 2 7 1.575 4.4871345759774774 2.4136180381411294 -14.595448278705113 0 0 0
76 2 7 1.575 6.655103816300818 25.677777974786448 -14.61746552035577 0 -1 0
78 2 7 1.575 6.630781848681248 2.421288917871147 -16.671792005223704 0 0 0
79 2 7 1.575 2.3619106141556525 6.647797058745313 -17.020458715688395 0 0 0
82 0 8 -1.05 6.4343581213532755 0.4485245933658146 -16.555361075213384 0 0 0
86 0 8 -1.05 0.37198028325361115 4.594121937719248 -14.438596234467136 0 0 0
87 0 8 -1.05 6.680847305812089 6.689898202151394 -14.492698304522769 0 0 0
90 0 8 -1.05 0.4556061057498728 6.4284582881145065 -16.500956021706006 0 0 0
91 0 8 -1.05 4.419002029041386 4.417073457779773 -14.553178324569906 0 0 0
96 0 8 -1.05 6.523031138726868 2.2889116667154137 -14.562828244749612 0 0 0
97 0 8 -1.05 8.659901035409236 8.663968081737258 -14.549310579917313 0 0 0
102 0 8 -1.05 4.610304557799543 2.2690089804917712 -16.551501974838978 0 0 0
104 0 8 -1.05 2.275321588609999 6.504378616850948 -14.42801360287779 0 0 0
105 0 8 -1.05 4.5893829964539385 0.3687749105879644 -14.588736053836469 0 0 0
109 0 9 -1 2.2984781110481594 4.5633989905261725 -16.515777336020598 0 0 0
111 0 8 -1.05 2.4384755165941665 2.419855119510972 -14.485387504253799 0 0 0
470 0 10 0.425 2.919546672730196 3.949974972123529 -17.068678470531104 0 0 0
60 1 6 1.575 3.4496838036191773 7.703298561000927 -13.535295982902008 0 0 0
62 1 7 1.575 7.6792264458048445 3.4259024614800735 -13.521498946451073 0 0 0
59 1 7 1.575 5.552066062734912 1.305648523193878 -11.41459885601247 0 0 0
61 1 7 1.575 1.3343658396712361 5.565795406775994 -11.43366766112878 0 0 0
66 2 7 1.575 2.3656247825033176 2.3666299387829013 -12.452256024854929 0 0 0
67 2 7 1.575 6.603324062419556 6.601975879741158 -12.448838932010998 0 0 0
77 2 6 1.05 0.2629089117063294 0.2657666041705042 -12.451215588082038 0 0 0
80 2 6 1.05 4.528283902359435 4.524907395010504 -12.439865736638657 0 0 0
83 0 8 -1.05 4.399201735485483 2.3681066853279944 -12.55785934900317 0 0 0
84 0 8 -1.05 4.602823464386878 6.627014392595503 -12.444558029676747 0 0 0
93 0 8 -1.05 6.619822644146732 8.657991839198072 -12.567994635743595 0 0 0
94 0 8 -1.05 2.391445166578101 0.33953731647896984 -12.359484042516698 0 0 0
99 0 8 -1.05 2.41736022779978 4.3676355432457825 -12.506114100514992 0 0 0
100 0 8 -1.05 6.601805056675064 4.595988635518157 -12.446853523729855 0 0 0
107 0 8 -1.05 0.36552205424114576 2.330829624114927 -12.431091527072198 0 0 0
108 0 8 -1.05 8.629573303723879 6.657322319726011 -12.519864730217494 0 0 0
495 0 8 -1.05 10.987318035155601 8.626351619778239 -16.610343997368172 0 0 0
515 0 8 -1.05 12.812660057958647 6.76206712292317 -16.575797225705713 0 0 0
527 1 7 1.575 9.77224556358534 1.3118308085312818 -15.719457841679336 0 0 0
539 2 7 1.575 10.867688752468569 4.509855372982756 -14.550847805666137 0 0 0
540 2 7 1.575 8.75592094169021 6.6149102901935555 -14.584590121207597 0 0 0
542 2 7 1.575 8.709716717018974 4.5235271982561525 -17.00115298013262 0 0 0
549 2 7 1.575 10.842703559382437 6.655789577395813 -17.034735022838138 0 0 0
556 0 8 -1.05 8.861715626738718 4.585056982209863 -14.463585392004036 0 0 0
560 0 8 -1.05 8.948375644722022 6.432237852698205 -16.493110761984966 0 0 0
561 0 8 -1.05 12.908634842337833 4.4229296076477835 -14.549559180185373 0 0 0
574 0 8 -1.05 10.768078530984516 6.501105916522189 -14.398125313202643 0 0 0
579 0 9 -1 10.79744731334713 4.578036737002528 -16.51856675952211 0 0 0
581 0 8 -1.05 10.918405559976884 2.4357533333116375 -14.485778875699424 0 0 0
940 0 10 0.425 11.40901006144233 3.9574435163257338 -17.07570408911187 0 0 0
530 1 6 1.575 11.942266331408893 7.703210200625631 -13.520318266667573 0 0 0
531 1 7 1.575 9.790631472344021 5.555760995775538 -11.429728628191096 0 0 0
536 2 7 1.575 10.850281424412678 2.3569488196383412 -12.449922066299312 0 0 0
547 2 6 1.05 8.7637307629448 0.25245545274450193 -12.453976805227628 0 0 0
553 0 8 -1.05 12.889302181031741 2.388405111935078 -12.546304525226647 0 0 0
564 0 8 -1.05 10.86151702613272 0.3677679259657762 -12.440579665361732 0 0 0
569 0 8 -1.05 10.902886210352543 4.374276032525696 -12.508039058544657 0 0 0
577 0 8 -1.05 8.823868705301026 2.35817938893609 -12.374338765041886 0 0 0
503 0 8 -1.05 17.08341418607545 2.548554929209514 -16.571338591070297 0 0 0
524 0 8 -1.05 15.221519381335078 4.377767004409112 -16.60308440897003 0 0 0
533 1 6 1.575 14.036868858791737 5.577416241315482 -15.721666016912556 0 0 0
535 2 7 1.575 12.942597663008938 0.2543156834047302 -16.67800283366706 0 0 0
543 2 7 1.575 12.961073413416699 2.409077081463798 -14.591180477224464 0 0 0
546 2 7 1.575 15.134776641411454 25.677778807440077 -14.619645785236614 0 -1 0
548 2 7 1.575 15.10969390838322 2.4201069701729776 -16.67120229703569 0 0 0
552 0 8 -1.05 14.912834144512717 0.44901519720663646 -16.55395646228034 0 0 0
557 0 8 -1.05 15.14611614628678 6.685394465007863 -14.485841792412423 0 0 0
566 0 8 -1.05 15.000370817707022 2.290063513485393 -14.55749849131313 0 0 0
567 0 8 -1.05 17.132995288410104 8.659656090420793 -14.54357462770558 0 0 0
572 0 8 -1.05 13.091693839783632 2.2709366831156768 -16.54514517871411 0 0 0
575 0 8 -1.05 13.072457769280579 0.3619643847033902 -14.581260143484785 0 0 0
532 1 7 1.575 16.15330604007387 3.427388132825657 -13.515015164754747 0 0 0
529 1 7 1.575 14.041394669086333 1.3086235736709457 -11.417155980841223 0 0 0
537 2 7 1.575 15.090468109753859 6.599659431593988 -12.462904326937949 0 0 0
550 2 6 1.05 12.99983257725628 4.502508910657891 -12.453913613026298 0 0 0
554 0 8 -1.05 13.069913690295849 6.624578928322556 -12.370206130647288 0 0 0
563 0 8 -1.05 15.093678733448334 8.6466134906177 -12.562009309642857 0 0 0
570 0 8 -1.05 15.071774592539148 4.601543844802747 -12.436058971946698 0 0 0
578 0 8 -1.05 17.09789639309144 6.655143142766704 -12.504843374621437 0 0 0
965 0 8 -1.05 19.463945630128144 8.625163860699846 -16.60272180179989 0 0 0
973 0 8 -1.05 25.559301425397575 2.546547705870504 -16.57137433175636 0 0 0
985 0 8 -1.05 21.28457466254336 6.76120255660321 -16.57810751328028 0 0 0
994 0 8 -1.05 23.6964260592954 4.373173302678702 -16.6197738002455 0 0 0
997 1 7 1.575 18.25355129864908 1.3098582159514836 -15.719685659309803 0 0 0
1003 1 6 1.575 22.524465671143062 5.583141665152363 -15.733241745290394 0 0 0
1005 2 7 1.575 21.422197916416923 0.25179069983101005 -16.678276534492127 0 0 0
1009 2 7 1.575 19.34888298226181 4.5118099991139005 -14.551106201758389 0 0 0
1010 2 7 1.575 17.233737043818522 6.613183201209881 -14.585251819780499 0 0 0
1012 2 7 1.575 17.191003690239384 4.519615802627534 -17.01064322484464 0 0 0
1013 2 7 1.575 21.44011492410773 2.4117025369204677 -14.596468070176288 0 0 0
1016 2 7 1.575 23.615982628795365 25.679664104644655 -14.619377214585391 0 -1 0
1018 2 7 1.575 23.587255241459477 2.4173748231459826 -16.675941702433295 0 0 0
1019 2 7 1.575 19.31848160353899 6.655556647875101 -17.035205006605 0 0 0
1022 0 8 -1.05 23.391548921643373 0.4462904540703396 -16.553247819263884 0 0 0
1026 0 8 -1.05 17.33794582937475 4.59142189041471 -14.447046317721757 0 0 0
1027 0 8 -1.05 23.64825686473878 6.701501305902887 -14.552948188696089 0 0 0
1030 0 8 -1.05 17.420749167842526 6.429788797258548 -16.49304604228297 0 0 0
1031 0 8 -1.05 21.389475814154956 4.426160621584064 -14.558553375019594 0 0 0
1036 0 8 -1.05 23.475615148512478 2.289308809817253 -14.561704454677985 0 0 0
1037 0 8 -1.05 25.63222413883237 8.681245042746948 -14.488795327750339 0 0 0
1042 0 8 -1.05 21.56733129554295 2.266813872543599 -16.54959587983009 0 0 0
1044 0 8 -1.05 19.237373207922598 6.504151424253598 -14.394078196359713 0 0 0
1045 0 8 -1.05 21.55080200544849 0.360903715243275 -14.580455596533438 0 0 0
1049 0 9 -1 19.26884025559989 4.576902404296708 -16.518657037769337 0 0 0
1051 0 8 -1.05 19.394311815509788 2.438312444720728 -14.489500013343243 0 0 0
1410 0 10 0.425 19.884822013627918 3.959606785917769 -17.073156278842237 0 0 0
1000 1 6 1.575 20.42464502488819 7.6999086014945295 -13.521692190596506 0 0 0
1002 1 7 1.575 24.6379749569141 3.4158806163231694 -13.515988694361182 0 0 0
999 1 7 1.575 22.519319861812633 1.319400269468119 -11.424037177917436 0 0 0
1001 1 7 1.575 18.28632558148218 5.5581343983176525 -11.437502386683978 0 0 0
1006 2 7 1.575 19.329347181661383 2.354891609680067 -12.454978494939397 0 0 0
1007 2 6 1.05 23.567394281976956 6.578784547244571 -12.476997970811412 0 0 0
1017 2 6 1.05 17.24649435864394 0.2478526385304714 -12.45102017582838 0 0 0
1020 2 6 1.05 21.486674448896473 4.524525414765893 -12.475872974142028 0 0 0
1023 0 8 -1.05 21.359964323283236 2.390937216908031 -12.551682665503632 0 0 0
1024 0 8 -1.05 21.484977039901377 6.612887322600347 -12.340017275947686 0 0 0
1033 0 8 -1.05 23.666033068956487 8.729126419954683 -12.55485671352976 0 0 0
1034 0 8 -1.05 19.338527547778902 0.36713796438713275 -12.441026799366286 0 0 0
1039 0 8 -1.05 19.389707066451482 4.370206299925928 -12.506154471152799 0 0 0
1040 0 8 -1.05 23.550649635728796 4.489312808009298 -12.343078620706757 0 0 0
1047 0 8 -1.05 17.299214910679815 2.3573993880025372 -12.372326783739803 0 0 0
1048 0 8 -1.05 25.65792440188265 6.7381736448252045 -12.512230522226293 0 0 0
1443 0 8 -1.05 8.600550069186932 11.032764479951485 -16.581931880392215 0 0 0
1464 0 8 -1.05 6.732189477491373 12.85752294735573 -16.599881381709576 0 0 0
1467 1 7 1.575 1.2931756107756232 9.793818265381006 -15.727127992635843 0 0 0
1475 2 7 1.575 4.4582971197596235 8.732911707578143 -16.6789566011761 0 0 0
1483 2 7 1.575 4.467482685368068 10.881840400089994 -14.60005440685516 0 0 0
1486 2 7 1.575 6.649326663079379 8.714535610349714 -14.621033095458829 0 0 0
1488 2 7 1.575 6.625359581175569 10.898046896414904 -16.67859067314154 0 0 0
1492 0 8 -1.05 6.425839842911959 8.926865862145766 -16.559089618750654 0 0 0
1501 0 8 -1.05 4.42940877517923 12.916161273683906 -14.494568929049773 0 0 0
1506 0 8 -1.05 6.5154992730431545 10.76369480922749 -14.583630973444485 0 0 0
1512 0 8 -1.05 4.607656995441702 10.756751282625267 -16.558205649369683 0 0 0
1515 0 8 -1.05 4.575677711477698 8.852746349736416 -14.584367639579503 0 0 0
1521 0 8 -1.05 2.4459235692035546 10.92487349535507 -14.554199058622801 0 0 0
1880 0 10 0.425 2.9175860623760066 12.438528064302846 -17.06305875869579 0 0 0
1472 1 7 1.575 7.6687170317816795 11.88973047378456 -13.531411797856407 0 0 0
1469 1 7 1.575 5.547869739293306 9.792331924078526 -11.422425449778741 0 0 0
1476 2 6 1.05 2.35685656129176 10.850028690148847 -12.448660312943883 0 0 0
1487 2 7 1.575 0.2640118663764227 8.748878709434582 -12.46464914607188 0 0 0
1493 0 8 -1.05 4.474957925719661 10.941697007487797 -12.563168000930817 0 0 0
1504 0 8 -1.05 2.2971941093101487 8.740386668312892 -12.366915124098304 0 0 0
1509 0 8 -1.05 2.4899624604280723 12.933550901940764 -12.510262974991885 0 0 0
1517 0 8 -1.05 0.2729710132490111 10.735056128171642 -12.435624141824647 0 0 0
1435 0 8 -1.05 2.4964137756071128 17.091117001061363 -16.590157490923247 0 0 0
1455 0 8 -1.05 4.325431232311256 15.230004334886766 -16.566099089784544 0 0 0
1473 1 6 1.575 5.566396481030189 14.066061264944553 -15.700956828284637 0 0 0
1479 2 7 1.575 2.3684532879932325 12.969433163778524 -14.544061361620972 0 0 0
1480 2 7 1.575 0.27209196307525463 15.078286672525671 -14.608646577502311 0 0 0
1482 2 7 1.575 25.665077174934602 12.994548466200934 -17.040626465762312 -1 0 0
1489 2 7 1.575 2.360951871533987 15.123478852553884 -17.02136801458097 0 0 0
1496 0 8 -1.05 0.3654249900936525 13.084869073737215 -14.400065774141806 0 0 0
1497 0 8 -1.05 6.698375298646117 15.193797140563552 -14.54769415481636 0 0 0
1500 0 8 -1.05 0.4410566276043127 14.901287400568807 -16.510880756337787 0 0 0
1507 0 8 -1.05 8.672841219912648 17.18117548254445 -14.48724559675499 0 0 0
1514 0 8 -1.05 2.2638045939988145 14.991631525150762 -14.433494355352343 0 0 0
1470 1 6 1.575 3.4565914812988723 16.172380964123068 -13.528889304859803 0 0 0
1519 0 9 -1 2.2963196559819994 13.057292094812178 -16.51396384706314 0 0 0
1471 1 7 1.575 1.3217396330762055 14.04364898262241 -11.43998826008054 0 0 0
1477 2 6 1.05 6.602842461180192 15.070799257150599 -12.435290463686762 0 0 0
1490 2 7 1.575 4.521644978075181 12.99614492133067 -12.437353084884807 0 0 0
1494 0 8 -1.05 4.51650018153559 15.002874569599484 -12.445991553217107 0 0 0
1503 0 8 -1.05 6.716442196884414 17.23556726278272 -12.564898329201023 0 0 0
1510 0 8 -1.05 6.511627239033796 12.973300531958726 -12.450800344244072 0 0 0
1518 0 8 -1.05 8.705504825456616 15.228491589239372 -12.5201805656535 0 0 0
1937 1 7 1.575 9.764407393217766 9.78952376728379 -15.728466271209417 0 0 0
1971 0 8 -1.05 12.91024471390068 12.90229195055687 -14.548627557209437 0 0 0
1991 0 8 -1.05 10.919783384090364 10.906443297995118 -14.494058298841733 0 0 0
2350 0 10 0.425 11.39883805418713 12.429131120474109 -17.075643866067885 0 0 0
1946 2 7 1.575 10.834524083204572 10.84608822350732 -12.459510927546608 0 0 0
1957 2 6 1.05 8.73057777862998 8.750058787414263 -12.455457026377937 0 0 0
1963 0 8 -1.05 12.878840524715972 10.869830013868457 -12.565317169309877 0 0 0
1974 0 8 -1.05 10.872600629596068 8.829826877262326 -12.366441135713504 0 0 0
1979 0 8 -1.05 10.902274344182779 12.85556032578625 -12.502739318296964 0 0 0
1987 0 8 -1.05 8.847026754925867 10.825312226687378 -12.443367203855342 0 0 0
1905 0 8 -1.05 10.982490657570935 17.10108313406672 -16.60331607404295 0 0 0
1925 0 8 -1.05 12.81470079683055 15.243374445159638 -16.57747239827366 0 0 0
1949 2 7 1.575 10.86072195691949 12.984552956516723 -14.550920634113611 0 0 0
1950 2 7 1.575 8.735130365057863 15.081305574710536 -14.586627104371926 0 0 0
1952 2 7 1.575 8.699695434951023 13.002956037312998 -17.016806414660497 0 0 0
1959 2 7 1.575 10.839048191980483 15.128426669173267 -17.013454881395592 0 0 0
1966 0 8 -1.05 8.856099033228453 13.073076742095676 -14.43595013250763 0 0 0
1970 0 8 -1.05 8.936473486882544 14.909414022608416 -16.495539199668524 0 0 0
1984 0 8 -1.05 10.767015908001932 14.978473253682502 -14.441408746208271 0 0 0
1940 1 6 1.575 11.916858846619649 16.185744401142355 -13.52983882340053 0 0 0
1989 0 9 -1 10.784602453314124 13.045258848619815 -16.518130803695378 0 0 0
1941 1 7 1.575 9.77929403560743 14.036368062928938 -11.441641880335567 0 0 0
1913 0 8 -1.05 17.08096965379112 11.03265925815707 -16.57260745234128 0 0 0
1934 0 8 -1.05 15.221414978805445 12.861814171238612 -16.598474920280097 0 0 0
1945 2 7 1.575 12.943083072141356 8.73402596376823 -16.682673427963135 0 0 0
1953 2 7 1.575 12.95540364216449 10.889888064902863 -14.601342311709164 0 0 0
1956 2 7 1.575 15.128617912886138 8.716227033249888 -14.620544938623324 0 0 0
1958 2 7 1.575 15.106300532570668 10.902272725882073 -16.671805103524942 0 0 0
1962 0 8 -1.05 14.913069532597055 8.932649396998626 -16.55388349280305 0 0 0
1976 0 8 -1.05 14.993357259666245 10.77178098606003 -14.560196837996777 0 0 0
1982 0 8 -1.05 13.091031815978138 10.751774696814188 -16.553485123958158 0 0 0
1985 0 8 -1.05 13.068044662795518 8.844249867472822 -14.581529386574829 0 0 0
1942 1 7 1.575 16.144359274121395 11.897538807687834 -13.511829417512864 0 0 0
1939 1 7 1.575 14.016976823654607 9.78964612008464 -11.420746978776599 0 0 0
1943 1 6 1.575 14.033271051228828 14.060516332051968 -15.718922620005365 0 0 0
1967 0 8 -1.05 15.164035277914666 15.164966685900696 -14.489510918406713 0 0 0
1977 0 8 -1.05 17.135767270266268 17.14373981265167 -14.490686729241093 0 0 0
1947 2 7 1.575 15.074884765772488 15.085247371226762 -12.461707519523088 0 0 0
1960 2 6 1.05 12.980557441771296 13.010406867020867 -12.45033400432657 0 0 0
1964 0 8 -1.05 13.099306229393887 15.113076797718591 -12.452195094680873 0 0 0
1973 0 8 -1.05 15.170353538024525 17.132445202445126 -12.557438288949298 0 0 0
1980 0 8 -1.05 15.101406964818223 13.074435792645815 -12.376805699732774 0 0 0
1988 0 8 -1.05 17.103966695001393 15.200193675056001 -12.52051519694309 0 0 0
2383 0 8 -1.05 25.554666527239863 11.031956644316967 -16.571801617628807 0 0 0
2404 0 8 -1.05 23.69930798560939 12.86430081706691 -16.59937275009024 0 0 0
2407 1 7 1.575 18.242791751555192 9.786604160295697 -15.72086690231596 0 0 0
2415 2 7 1.575 21.422817961342563 8.732703180677245 -16.6786613380265 0 0 0
2423 2 7 1.575 21.43587995001513 10.890483500684814 -14.60060487932285 0 0 0
2426 2 7 1.575 23.60093659491011 8.705001692402435 -14.619164699911815 0 0 0
2428 2 7 1.575 23.58200498565183 10.904246884451036 -16.671809992049308 0 0 0
2432 0 8 -1.05 23.39217918143942 8.938057723388736 -16.552064494856157 0 0 0
2441 0 8 -1.05 21.386449691114805 12.905673001764304 -14.546702362535024 0 0 0
2446 0 8 -1.05 23.465974291118208 10.778312581267349 -14.569035786424365 0 0 0
2452 0 8 -1.05 21.562283378747185 10.75192712964651 -16.55257209660307 0 0 0
2455 0 8 -1.05 21.55078956623528 8.846311309891968 -14.573921666850941 0 0 0
2461 0 8 -1.05 19.395870867380033 10.908036537254137 -14.489851481325932 0 0 0
2820 0 10 0.425 19.879190133691758 12.430530754891011 -17.06973000584182 0 0 0
2412 1 7 1.575 24.620897540215314 11.889839815218565 -13.510293776635203 0 0 0
2409 1 7 1.575 22.505370017550327 9.79368940014127 -11.422676197317589 0 0 0
2416 2 7 1.575 19.317912261737245 10.845310076069131 -12.456181189543807 0 0 0
2427 2 6 1.05 17.21682890405526 8.752366981776133 -12.456920009673375 0 0 0
2433 0 8 -1.05 21.35684363814459 10.870204153939063 -12.563825543868598 0 0 0
2444 0 8 -1.05 19.348642686230797 8.828032323227514 -12.365335782919544 0 0 0
2449 0 8 -1.05 19.37453347508881 12.855816230651154 -12.49814314911253 0 0 0
2457 0 8 -1.05 17.328381566771625 10.828124573870793 -12.436833451007026 0 0 0
2375 0 8 -1.05 19.456044626168207 17.096934296680065 -16.583673386611682 0 0 0
2395 0 8 -1.05 21.289924574034583 15.244788303621393 -16.565458954721617 0 0 0
2413 1 6 1.575 22.517975275862007 14.063605330756635 -15.714792177974308 0 0 0
2419 2 7 1.575 19.339733377483284 12.981345444625271 -14.547472249886468 0 0 0
2420 2 7 1.575 17.232140581345618 15.08368268862932 -14.606245473177639 0 0 0
2422 2 7 1.575 17.18522216482645 12.997939845943657 -17.029556261320455 0 0 0
2429 2 7 1.575 19.321118661291273 15.131459728357541 -17.028457144911712 0 0 0
2436 0 8 -1.05 17.326745856338544 13.080452724979368 -14.426751745015208 0 0 0
2437 0 8 -1.05 23.647215472741767 15.17128039001974 -14.481408648312362 0 0 0
2440 0 8 -1.05 17.416101100060935 14.906162773933193 -16.508522051517573 0 0 0
2447 0 8 -1.05 25.61862846371912 17.15010339539008 -14.484777335099539 0 0 0
2454 0 8 -1.05 19.234467885456688 14.973239130786848 -14.415501586131903 0 0 0
2410 1 6 1.575 20.414632484987987 16.177885054900223 -13.53528885055737 0 0 0
2459 0 9 -1 19.26187354726203 13.047997112303735 -16.515222191876713 0 0 0
2411 1 7 1.575 18.260474551573882 14.05051321325551 -11.446150128706732 0 0 0
2417 2 7 1.575 23.56375780021948 15.083309865310587 -12.45603103813483 0 0 0
2430 2 6 1.05 21.46464045421239 13.007717443772027 -12.44829864015823 0 0 0
2434 0 8 -1.05 21.59052470519951 15.107494169769211 -12.453411461915495 0 0 0
2443 0 8 -1.05 23.661586313702095 17.147374988159857 -12.548216276873132 0 0 0
2450 0 8 -1.05 23.582860171584404 13.072952722417929 -12.374931062415024 0 0 0
2458 0 8 -1.05 25.597479856256225 15.208307032574615 -12.509877644773361 0 0 0
2845 0 8 -1.05 2.504058640034411 25.5816059687099 -16.60897241527953 0 0 0
2853 0 8 -1.05 8.59435079866787 19.511154380659452 -16.576800547294454 0 0 0
2865 0 8 -1.05 4.32651039357152 23.71682042281798 -16.56691302885241 0 0 0
2874 0 8 -1.05 6.731894861223113 21.33883586001734 -16.60140934403262 0 0 0
2877 1 7 1.575 1.2959509521234414 18.274528498197427 -15.713485994340006 0 0 0
2883 1 6 1.575 5.558560335929472 22.54279711992789 -15.706684237606193 0 0 0
2885 2 7 1.575 4.459924851116171 17.203937125123158 -16.671479728204087 0 0 0
2889 2 7 1.575 2.39071176240515 21.47520655407277 -14.546398445673248 0 0 0
2890 2 7 1.575 0.28075461388876205 23.57841918589259 -14.58922283120375 0 0 0
2892 2 7 1.575 25.674801108544052 21.476965895874727 -17.00445876690245 -1 0 0
2893 2 7 1.575 4.481112349363538 19.371050660026135 -14.594155111903568 0 0 0
2896 2 7 1.575 6.639571645884642 17.189335143461705 -14.618341819706313 0 0 0
2898 2 7 1.575 6.617839615882665 19.381748847302745 -16.678824922294446 0 0 0
2899 2 7 1.575 2.3631154540952983 23.617038305274203 -17.034511954339827 0 0 0
2902 0 8 -1.05 6.428829381960145 17.4134983208406 -16.555556017446698 0 0 0
2906 0 8 -1.05 0.3744941303219858 21.54917560820606 -14.456472835930631 0 0 0
2907 0 8 -1.05 6.679129702061125 23.646737716080562 -14.488295226935948 0 0 0
2910 0 8 -1.05 0.4634077970971907 23.387166130876423 -16.496530867133576 0 0 0
2911 0 8 -1.05 4.42252541994471 21.378496482613972 -14.544542546621635 0 0 0
2916 0 8 -1.05 6.509329782307401 19.255142967016294 -14.578310708541533 0 0 0
2917 0 8 -1.05 8.658307187195799 25.62410145569472 -14.546391193429391 0 0 0
2922 0 8 -1.05 4.593917064370331 19.223179101210828 -16.54988220765486 0 0 0
2924 0 8 -1.05 2.280551145467964 23.4655067900482 -14.3962374812597 0 0 0
2925 0 8 -1.05 4.585082837290725 17.32407565988319 -14.57435001242229 0 0 0
2929 0 9 -1 2.3079765573207487 21.529224485409095 -16.51429010240067 0 0 0
2931 0 8 -1.05 2.433901643405723 19.39045433457172 -14.484587801970628 0 0 0
3290 0 10 0.425 2.9261688899236673 20.913457249023416 -17.066739945375247 0 0 0
2880 1 6 1.575 3.4678442771240796 24.667819868183788 -13.527621927165695 0 0 0
2882 1 7 1.575 7.661243839543854 20.38182560772496 -13.530853852875337 0 0 0
2879 1 7 1.575 5.571466524974969 18.28490981793503 -11.410840588173592 0 0 0
2881 1 7 1.575 1.332147778680211 22.5268300841564 -11.43059306472385 0 0 0
2886 2 7 1.575 2.3746240566979235 19.325154335329227 -12.4432942416257 0 0 0
2887 2 7 1.575 6.606076323620639 23.56292550846661 -12.446999877126473 0 0 0
2897 2 7 1.575 0.27421538114453425 17.23120788598485 -12.449885271533617 0 0 0
2900 2 6 1.05 4.519066211818753 21.48068495690847 -12.428821308782059 0 0 0
2903 0 8 -1.05 4.397951933896116 19.327475140719784 -12.554492871100619 0 0 0
2904 0 8 -1.05 4.608208820722967 23.578468158825128 -12.431999993340945 0 0 0
2913 0 8 -1.05 6.622967919275889 25.610338970150327 -12.561650199840681 0 0 0
2914 0 8 -1.05 2.28054081015365 17.30237363327216 -12.47129473024385 0 0 0
2919 0 8 -1.05 2.4062517487776507 21.325567298763428 -12.508341631434321 0 0 0
2920 0 8 -1.05 6.600895163637702 21.549052647509622 -12.432397809638749 0 0 0
2927 0 8 -1.05 0.32686529653522317 19.233901750279767 -12.471553466783524 0 0 0
2928 0 8 -1.05 8.624045969775443 23.608118157380336 -12.515003403628748 0 0 0
3350 1 6 1.575 11.943859330585989 24.652254412680286 -13.526884831969198 0 0 0
3760 0 10 0.425 11.409576130898474 20.919573002033655 -17.079382588510583 0 0 0
3315 0 8 -1.05 10.985793536028618 25.58407605891253 -16.60729473238152 0 0 0
3335 0 8 -1.05 12.811484873121064 23.719148627001594 -16.571786427117686 0 0 0
3347 1 7 1.575 9.772989698726844 18.279735010606814 -15.72662473001447 0 0 0
3359 2 7 1.575 10.85022231241819 21.45200064876835 -14.554974414363375 0 0 0
3360 2 7 1.575 8.756768820829883 23.575788646864016 -14.58568842089175 0 0 0
3362 2 7 1.575 8.70137225903316 21.480614574239038 -17.018593320299196 0 0 0
3369 2 7 1.575 10.83903727542593 23.61565823986143 -17.02339867792933 0 0 0
3376 0 8 -1.05 8.862359188666334 21.543775987675332 -14.434363285031957 0 0 0
3380 0 8 -1.05 8.936112993965837 23.37907524894585 -16.49401354705512 0 0 0
3381 0 8 -1.05 12.926944111571707 21.395856930767955 -14.491029496077498 0 0 0
3394 0 8 -1.05 10.768121077904805 23.458396460487243 -14.426127221839938 0 0 0
3399 0 9 -1 10.797984268274417 21.537602696838977 -16.520715608570136 0 0 0
3401 0 8 -1.05 10.9344173551868 19.409922894889956 -14.550135030254344 0 0 0
3351 1 7 1.575 9.787008466093397 22.504705009061905 -11.436852453731921 0 0 0
3356 2 6 1.05 10.857510010943743 19.319110339062213 -12.445367960693902 0 0 0
3367 2 7 1.575 8.748487089263346 17.22645068563926 -12.45971883637513 0 0 0
3373 0 8 -1.05 12.990339859797945 19.430957551297347 -12.561598726891043 0 0 0
3384 0 8 -1.05 10.750612788759655 17.25719453941049 -12.437728304679936 0 0 0
3389 0 8 -1.05 10.985127621072522 21.412395928507806 -12.509183024899714 0 0 0
3397 0 8 -1.05 8.72774715552982 19.25678677282576 -12.362835497131949 0 0 0
3323 0 8 -1.05 17.078927203324373 19.501791452615027 -16.572037512824885 0 0 0
3344 0 8 -1.05 15.217407949683281 21.333433560948507 -16.59089195477863 0 0 0
3353 1 6 1.575 14.04382593359895 22.5480238847186 -15.717373583937372 0 0 0
3355 2 7 1.575 12.93646422925375 17.214173818430414 -16.690284084114264 0 0 0
3363 2 7 1.575 12.945027864123285 19.358990875364206 -14.602011802581162 0 0 0
3366 2 7 1.575 15.116567682493631 17.195100556650267 -14.636300905628726 0 0 0
3368 2 7 1.575 15.107615127043202 19.376693015132165 -16.687491130550477 0 0 0
3372 0 8 -1.05 14.910646676385772 17.401867537700856 -16.563993102010944 0 0 0
3377 0 8 -1.05 15.157703304729074 23.64441891230021 -14.487133153951566 0 0 0
3386 0 8 -1.05 14.995900292153802 19.23967691133337 -14.578275996798569 0 0 0
3387 0 8 -1.05 17.13679409383257 25.624148665897877 -14.543872772989122 0 0 0
3392 0 8 -1.05 13.09527673981978 19.229753665880278 -16.554170933053488 0 0 0
3395 0 8 -1.05 13.073851316970057 17.32429057089079 -14.570322505867802 0 0 0
3352 1 7 1.575 16.12839032406667 20.3982566747428 -13.534321141396095 0 0 0
3349 1 7 1.575 14.062287536592004 18.275316806272713 -11.425493892251206 0 0 0
3357 2 7 1.575 15.097585737844819 23.577277413074434 -12.447556583143259 0 0 0