LAMMPS data file via write_data, version 17 Feb 2022, timestep = 18

1332 atoms
10 atom types
180 bonds
6 bond types
324 angles
6 angle types
0 dihedrals
2 dihedral types
36 impropers
2 improper types

0 25.44 xlo xhi
0 25.44 ylo yhi
35.929417 100.267417 zlo zhi

Masses

1 12.011
2 1.008
3 15.9994
4 15.9994
5 1.008
6 55.845
7 55.845
8 15.9994
9 15.9994
10 1.008

Pair Coeffs # lj/cut/coul/long

1 0.0988 3.31521
2 0.0161 2.4473
3 0.1463 3.04812
4 0.093 3.24287
5 0.0047 0.537925
6 9.0298e-07 4.9062
7 9.0298e-07 4.9062
8 0.1554 3.16554
9 0.1554 3.16554
10 0 0

Bond Coeffs # harmonic

1 361.8 1.105
2 652.57 1.218
3 383.13 1.351
4 563.51 0.973
5 554.135 1
6 0 2.08

Angle Coeffs # harmonic

1 51.617 106.55
2 65.93 123.65
3 65.262 109.49
4 115.745 122.1
5 118.817 130.25
6 30 109.47

Dihedral Coeffs # fourier

1 1 2.3 2 180
2 2 2.3 2 180 1.9 1 0

Improper Coeffs # cvff

1 10.5 -1 2
2 10.5 -1 2

Atoms # full

22 0 1 0.731 3.254132385159735 7.705312566899157 56.969012991165926 0 0 0
21 0 2 -0.123 3.2468341970776367 7.7121492789515 55.86921219972371 0 0 0
1048 0 1 0.731 7.502191331819065 3.459463939229651 56.96899359836889 0 1 0
1047 0 2 -0.123 7.501698385741429 3.4604668558408873 55.869136689688915 0 1 0
170 0 1 0.731 11.735461713602918 7.705099283425348 56.968897355571315 0 0 0
169 0 2 -0.123 11.728164846196723 7.711868229885692 55.86915942533706 0 0 0
1196 0 1 0.731 15.982143620059347 3.4565447753520755 56.968945572641985 0 1 0
1195 0 2 -0.123 15.985168446694471 3.4526647583143633 55.86912092429197 0 1 0
900 0 1 0.731 24.456507486705235 3.4638929783415717 56.96900878306951 -1 1 0
899 0 2 -0.123 24.450072245627595 3.4706015306205806 55.869215825019836 -1 1 0
318 0 1 0.731 20.22440448349386 7.69400811727556 56.96907061879978 0 0 0
317 0 2 -0.123 20.226635029649326 7.691239537695301 55.869223882919265 0 0 0
160 0 1 0.731 7.509141492845744 11.931801294708643 56.9690652361656 0 0 0
159 0 2 -0.123 7.51739768686697 11.923444163604541 55.869293082370405 0 0 0
466 0 1 0.731 3.2563121581004024 16.186258665763873 56.96909523752613 0 0 0
465 0 2 -0.123 3.2487736315551907 16.194252660059103 55.86929711939598 0 0 0
614 0 1 0.731 11.736224827366545 16.18459565400052 56.96903022813369 0 0 0
613 0 2 -0.123 11.732074608860401 16.188928304824454 55.86921031409153 0 0 0
308 0 1 0.731 15.97954694296515 11.936203449903788 56.96911512405009 0 0 0
307 0 2 -0.123 15.979713305741821 11.934461364208818 55.86927099132444 0 0 0
12 0 1 0.731 24.46161100182575 11.938380813576813 56.969211746384424 -1 0 0
11 0 2 -0.123 24.460868863055676 11.93887976559228 55.8693477057687 -1 0 0
762 0 1 0.731 20.225752210136125 16.175154480051663 56.96928665919192 0 0 0
761 0 2 -0.123 20.23170358525263 16.16948283000332 55.86948015308302 0 0 0
910 0 1 0.731 3.2602403148929358 24.660058688183614 56.9688787117019 0 0 0
909 0 2 -0.123 3.257580002214257 24.66303754785945 55.86911728866169 0 0 0
604 0 1 0.731 7.499522491899719 20.42347840879057 56.96896285114183 0 0 0
603 0 2 -0.123 7.4987265664703395 20.425464235093827 55.86911245077382 0 0 0
1058 0 1 0.731 11.737342491501826 24.663637393239334 56.96892653748075 0 0 0
1057 0 2 -0.123 11.734050305787369 24.666913933397073 55.86907485678445 0 0 0
752 0 1 0.731 15.984247994625555 20.415780171416298 56.96909861800549 0 0 0
751 0 2 -0.123 15.989620446149003 20.410086292965314 55.86929464697057 0 0 0
456 0 1 0.731 24.462973101474354 20.42159568970395 56.969093721502546 -1 0 0
455 0 2 -0.123 24.462192934385143 20.423364049982315 55.869201325772266 -1 0 0
1206 0 1 0.731 20.22625429625797 24.656113338101093 56.96906247372398 0 0 0
1205 0 2 -0.123 20.23007819737235 24.652798876495012 55.869224522282124 0 0 0
19 2 7 1.575 0.129282984764497 4.567727069080568 59.41555197030422 0 0 0
2 0 8 -1.05 0.19712016660560497 6.523158809454804 59.741845684246485 0 0 0
23 0 8 -1.05 2.0849760276068072 4.635748957401319 59.74083610738101 0 0 0
20 0 3 -0.804 2.506012444299564 6.950359908154538 57.56742306638963 0 0 0
156 0 9 -0.975 4.200981192686459 6.759691353528685 59.794190941379036 0 0 0
164 0 9 -0.975 6.560870765476009 4.399703091731624 59.7946574887617 0 0 0
152 2 7 1.575 2.1525496196095792 6.591560739962391 59.41599197328179 0 0 0
163 2 7 1.575 6.393220522061077 2.3511171912071394 59.41507797665707 0 0 0
176 1 7 1.575 7.501135899218506 7.69953057504577 60.67659929753374 0 0 0
197 1 7 1.575 3.2612701667309576 3.4593740038717695 60.675985456909956 0 0 0
155 0 10 0.425 4.768980498029418 6.191390318143626 59.162274265474935 0 0 0
161 0 10 0.425 5.993100915399296 4.967919465998458 59.1634098648675 0 0 0
1041 0 9 -0.975 2.320982200457683 0.15974151748638635 59.79482950985306 0 1 0
1046 2 7 1.575 4.369611222199282 0.32745034201739304 59.415452045163555 0 1 0
1037 0 8 -1.05 6.32510086180728 0.3956691225539741 59.74134748904095 0 1 0
1060 0 8 -1.05 4.4375296342009936 2.2832012892022293 59.74059605228318 0 1 0
1045 0 3 -0.804 6.750724281222124 2.707519938640774 57.56680283968848 0 1 0
1039 0 10 0.425 1.75288645035211 0.7277146475228848 59.163502952570596 0 1 0
166 0 9 -0.975 8.441802502417866 2.5187959890399396 59.7951695904469 0 0 0
1050 0 3 -0.804 8.254106090342715 4.210729670561578 57.567407282884844 0 1 0
6 0 3 -0.804 4.008920349234845 8.454067970217382 57.56680076984663 0 0 0
17 0 10 0.425 0.5293390512731178 1.9512325875559169 59.16313265954773 0 0 0
29 0 8 -1.05 0.056869832590908234 6.663823203839732 63.983139649572394 0 0 0
42 0 8 -1.05 25.429830733627416 4.427917260612597 61.782375522338114 -1 0 0
43 2 7 1.575 0.08535678273149554 2.3953429233968584 61.81166342517851 0 0 0
45 1 7 1.575 1.1412217862105902 5.579472290492942 62.81543188074526 0 0 0
920 0 8 -1.05 2.168569419004887 0.3122663617261663 63.797967671487015 0 1 0
934 0 8 -1.05 2.1109493014122225 2.3091881955382694 61.756651232750954 0 1 0
932 0 8 -1.05 0.11394422126791147 2.3667711965786333 63.797924488919556 0 1 0
919 0 8 -1.05 0.1716970290015032 0.36987844123721586 61.75701468393569 0 1 0
918 2 6 1.05 0.07486744970256363 0.27308166144206797 63.884915323567625 0 1 0
200 0 8 -1.05 4.411455581047818 4.609841645485755 61.75645934138145 0 0 0
196 0 8 -1.05 2.2255702337464744 4.495104745424293 63.9830365099878 0 0 0
189 0 8 -1.05 6.532586125996198 2.4909474313702535 61.78240781997369 0 0 0
185 0 8 -1.05 4.353788641693197 6.606758606400072 63.79764129953765 0 0 0
198 0 8 -1.05 4.2968048831846675 2.4238913079277578 63.98302315163907 0 0 0
173 0 8 -1.05 6.350716124064275 6.5490673758739355 61.75669394337073 0 0 0
182 0 8 -1.05 2.2926474473401863 6.730807350884744 61.78210278127059 0 0 0
187 0 8 -1.05 6.408428732622252 4.552170541571314 63.797810222802305 0 0 0
174 2 6 1.05 6.447478594048818 6.645851163107546 63.8847620140788 0 0 0
195 2 6 1.05 2.207607443760606 2.405921979972339 63.88477705996919 0 0 0
188 2 7 1.575 6.437030145278984 4.523529761991311 61.811603583015064 0 0 0
184 2 7 1.575 4.325287158234143 6.63539158884145 61.811285244427104 0 0 0
199 2 6 1.05 4.314754416785976 4.513101445122281 63.88466659765562 0 0 0
1071 0 8 -1.05 4.229838018418967 0.18809793015247153 61.78229679180161 0 1 0
1063 0 8 -1.05 6.46554226175191 0.25511513633071725 63.98320611772839 0 1 0
1069 2 7 1.575 2.197202338474688 0.28360801677246583 61.81175446785196 0 1 0
1074 1 7 1.575 5.3812290981025 1.3394832182000216 62.815540462851914 0 1 0
154 0 3 -0.804 12.48989140991107 8.453484985418509 57.56692614833321 0 0 0
165 0 10 0.425 9.009879707365172 1.9510507618913204 59.1640770178687 0 0 0
167 2 7 1.575 8.609544610486866 4.567533669939685 59.41596316279743 0 0 0
150 0 8 -1.05 8.67722705790672 6.523188886662557 59.741350123328594 0 0 0
171 0 8 -1.05 10.565107862905919 4.635829970118531 59.741377713341045 0 0 0
168 0 3 -0.804 10.98687780888066 6.949883704465888 57.567232752545195 0 0 0
300 2 7 1.575 10.63275934566611 6.591412114867801 59.41561346137378 0 0 0
345 1 7 1.575 11.740988360072185 3.4595369766130646 60.67697880248104 0 0 0
1189 0 9 -0.975 10.800166515650423 0.1603899316709777 59.79551210541833 0 1 0
1187 0 10 0.425 10.232298928381674 0.7282362764301373 59.1648932641532 0 1 0
304 0 9 -0.975 12.681167634133304 6.759464809011516 59.79440433085209 0 0 0
177 0 8 -1.05 8.53671221389466 6.663765623758065 63.98308660943328 0 0 0
190 0 8 -1.05 8.469741699656254 4.428055010452292 61.78217315984779 0 0 0
191 2 7 1.575 8.565232185158004 2.395355203189804 61.81215847269076 0 0 0
193 1 7 1.575 9.62113172751306 5.579416563989636 62.81549827009266 0 0 0
1068 0 8 -1.05 10.648534372615483 0.3121300446532887 63.798405134975766 0 1 0
1082 0 8 -1.05 10.590777360642168 2.309204773583176 61.75744784516625 0 1 0
1080 0 8 -1.05 8.593782553724246 2.3669087110321017 63.79828784013222 0 1 0
1067 0 8 -1.05 8.651454564409162 0.3698865084167978 61.75765066200077 0 1 0
1066 2 6 1.05 8.554805864795515 0.273157966327499 63.88531702619379 0 1 0
344 0 8 -1.05 10.705526629865114 4.495073380033846 63.98311999760363 0 0 0
330 0 8 -1.05 10.77263040851416 6.730797776180474 61.78237264316229 0 0 0
343 2 6 1.05 10.687519540379045 2.4058420828293317 63.88520279618084 0 0 0
1217 2 7 1.575 10.677053803897369 0.28355467520695027 61.812368501168265 0 1 0
312 0 9 -0.975 15.04072467962839 4.399873739500059 59.79482322258224 0 0 0
311 2 7 1.575 14.872847925801873 2.351182563613397 59.41628353285488 0 0 0
324 1 7 1.575 15.981272765051996 7.699099841716572 60.67637607075331 0 0 0
309 0 10 0.425 14.472300261267895 4.967460747196683 59.16373936774488 0 0 0
1194 2 7 1.575 12.848945536501144 0.3280578135861151 59.41552494809669 0 1 0
1185 0 8 -1.05 14.804660054557498 0.39542754920609 59.74103218785067 0 1 0
1208 0 8 -1.05 12.917274776815855 2.2834254628837627 59.74172727307909 0 1 0
1193 0 3 -0.804 15.229410560654216 2.7062280084589654 57.56761229458807 0 1 0
303 0 10 0.425 13.249212303378544 6.191422503832227 59.16274553349599 0 0 0
314 0 9 -0.975 16.921719227765585 2.5189404870057874 59.79490216480546 0 0 0
1198 0 3 -0.804 16.732105990842555 4.210146371282753 57.566527019438716 0 1 0
348 0 8 -1.05 12.891538252445894 4.609890288860031 61.75698892390669 0 0 0
337 0 8 -1.05 15.012595076977833 2.4907523423900226 61.78200040114231 0 0 0
333 0 8 -1.05 12.833893753763858 6.606745682403159 63.79794573236838 0 0 0
346 0 8 -1.05 12.776826636634512 2.423834161728418 63.98305779006786 0 0 0
321 0 8 -1.05 14.83082538453745 6.54903475005918 61.75686716697073 0 0 0
335 0 8 -1.05 14.888481728254655 4.5520290221169315 63.79799083976676 0 0 0
322 2 6 1.05 14.927543719411375 6.6457966993783275 63.88484070314028 0 0 0
336 2 7 1.575 14.917086388324927 4.523513672239457 61.811814377096844 0 0 0
332 2 7 1.575 12.805289714115023 6.635387238772639 61.811597773659436 0 0 0
347 2 6 1.05 12.794779266384316 4.513099510449292 63.88496753949292 0 0 0
1219 0 8 -1.05 12.709769050614193 0.1879722816322398 61.78238131716444 0 1 0
1211 0 8 -1.05 14.945611575071815 0.2550710411391706 63.98298282195147 0 1 0
1222 1 7 1.575 13.861209291229917 1.339473338260949 62.81541535714719 0 1 0
313 0 10 0.425 17.489379278400214 1.950731284336529 59.163917095893694 0 0 0
8 0 9 -0.975 21.162424432366137 6.7582110621804805 59.79556720834838 -1 0 0
16 0 9 -0.975 23.52056117420877 4.400044738986434 59.79540641791313 -1 0 0
4 2 7 1.575 19.113476994659333 6.590554779368861 59.41639415091262 -1 0 0
15 2 7 1.575 23.35295760217508 2.3513018036845335 59.415520817749844 -1 0 0
28 1 7 1.575 24.461151419008168 7.699341141068075 60.67735552882693 -1 0 0
49 1 7 1.575 20.2213194847064 3.459238103898005 60.676766620389515 -1 0 0
7 0 10 0.425 21.729869045945296 6.190210431826195 59.165131867184925 -1 0 0
13 0 10 0.425 22.952671383126855 4.9680988145684 59.16424056642651 -1 0 0
893 0 9 -0.975 19.28139446821769 0.15928495113773194 59.794426763434 -1 1 0
898 2 7 1.575 21.329905797222125 0.3272609717152735 59.41624212035574 -1 1 0
889 0 8 -1.05 23.285426071779945 0.39576581233834274 59.741581046284615 -1 1 0
912 0 8 -1.05 21.397425298843668 2.2829973291416006 59.741347334936194 -1 1 0
897 0 3 -0.804 23.707894369239916 2.709553320654738 57.56709530795548 -1 1 0
891 0 10 0.425 18.713560117635346 0.7277797628303445 59.16251570224423 -1 1 0
315 2 7 1.575 17.089278637038802 4.567556103226319 59.41465952794434 0 0 0
298 0 8 -1.05 17.157585792936146 6.523097696108024 59.740819987317145 0 0 0
319 0 8 -1.05 19.04475742008427 4.635020735502287 59.741423816320456 0 0 0
316 0 3 -0.804 19.471859377640495 6.943830803801352 57.56765069022283 0 0 0
902 0 3 -0.804 25.21135369976212 4.212693642976749 57.56718329515621 -1 1 0
302 0 3 -0.804 20.97508471224413 8.447227083771514 57.56671180859234 0 0 0
18 0 9 -0.975 25.401443444475273 2.5192337427781273 59.79454333388336 -1 0 0
52 0 8 -1.05 21.37147425876199 4.609624716104682 61.7573753455388 -1 0 0
48 0 8 -1.05 19.18556375501986 4.495002775167263 63.983035969830325 -1 0 0
41 0 8 -1.05 23.49270603535528 2.4908518787153233 61.78242838396769 -1 0 0
37 0 8 -1.05 21.313709281504767 6.606725062272954 63.79836460830778 -1 0 0
50 0 8 -1.05 21.256813553180276 2.4237185186733625 63.98308275218786 -1 0 0
25 0 8 -1.05 23.31087966302485 6.549031630707029 61.75769198656454 -1 0 0
34 0 8 -1.05 19.25248146972497 6.730786057651882 61.781873228410646 -1 0 0
39 0 8 -1.05 23.368516263412992 4.552060806268165 63.79831877490757 -1 0 0
26 2 6 1.05 23.407547345741133 6.645775748932857 63.88530740301143 -1 0 0
47 2 6 1.05 19.167569707113376 2.40572168997343 63.884873891399366 -1 0 0
40 2 7 1.575 23.39710976486675 4.523499883167497 61.812209936681974 -1 0 0
36 2 7 1.575 21.28535284396949 6.635275862050875 61.81241545989699 -1 0 0
51 2 6 1.05 21.274814018832632 4.512970568477691 63.8851656825333 -1 0 0
923 0 8 -1.05 21.189797222039516 0.18797379447885437 61.782084049599426 -1 1 0
915 0 8 -1.05 23.425564409009 0.25499755562955 63.983038333208675 -1 1 0
921 2 7 1.575 19.157046532813585 0.283401980898177 61.81144101416358 -1 1 0
926 1 7 1.575 22.341175720257144 1.3393757117478529 62.81542020845837 -1 1 0
325 0 8 -1.05 17.01681427016623 6.663805197581272 63.98297501469908 0 0 0
338 0 8 -1.05 16.9496224129505 4.427969938036028 61.782573589116154 0 0 0
339 2 7 1.575 17.045365571282353 2.395376499129259 61.81177249218928 0 0 0
341 1 7 1.575 18.1012247575924 5.579407056207594 62.81541274545793 0 0 0
1216 0 8 -1.05 19.128513776173836 0.31201688528461136 63.797763512441485 0 1 0
1230 0 8 -1.05 19.070908182757393 2.308850419433413 61.756919228596615 0 1 0
1228 0 8 -1.05 17.073845077731278 2.366651410500825 63.7979188837174 0 1 0
1215 0 8 -1.05 17.13153704299925 0.36968803985521304 61.75659225123032 0 1 0
1214 2 6 1.05 17.034817663449758 0.2729847862788205 63.88472891251052 0 1 0
461 0 10 0.425 0.5296244121702932 10.430718466922393 59.1640891933164 0 0 0
153 0 9 -0.975 2.3200467613144857 8.640555950519182 59.79556058154373 0 0 0
158 2 7 1.575 4.368948273621385 8.807974982109199 59.41506316008018 0 0 0
149 0 8 -1.05 6.32459408492365 8.875245996041574 59.74102120811658 0 0 0
172 0 8 -1.05 4.437652559512202 10.763498466201938 59.74086557809173 0 0 0
157 0 3 -0.804 6.753525226023067 11.183832374801852 57.56715038353596 0 0 0
151 0 10 0.425 1.7520322105800359 9.208054364297613 59.16502280302293 0 0 0
607 2 7 1.575 6.393420024291111 10.830768550251982 59.41552128549326 0 0 0
641 1 7 1.575 3.2611660882201767 11.939375465727046 60.67632906870181 0 0 0
610 0 9 -0.975 8.442402476128427 10.998190115348597 59.79579090702802 0 0 0
162 0 3 -0.804 8.256907744076592 12.687082183586021 57.56719268226569 0 0 0
32 0 8 -1.05 2.168537897200502 8.792136242113395 63.79830051682479 0 0 0
46 0 8 -1.05 2.110913656735006 10.789295230976084 61.757222828568665 0 0 0
44 0 8 -1.05 0.11379147288653557 10.846876787304398 63.79818903989615 0 0 0
31 0 8 -1.05 0.17148653797372593 8.849828811205494 61.75754408903497 0 0 0
30 2 6 1.05 0.07480473698878784 8.753095711653861 63.88526076011919 0 0 0
487 2 7 1.575 0.08532018479977904 10.875326834111444 61.81212457183867 0 0 0
183 0 8 -1.05 4.229726993467981 8.667995411462313 61.78233325362666 0 0 0
175 0 8 -1.05 6.465502142788577 8.735086589122256 63.983067353710766 0 0 0
181 2 7 1.575 2.1970887722201735 8.763619907163832 61.81233148160212 0 0 0
186 1 7 1.575 5.381163623180711 9.819446435811097 62.815425874717974 0 0 0
633 0 8 -1.05 6.5325111521027965 10.970890637226441 61.782176227674846 0 0 0
642 0 8 -1.05 4.296805783205016 10.90382630101665 63.98304512435403 0 0 0
639 2 6 1.05 2.2075621758171438 10.885871745462888 63.88509825720387 0 0 0
463 2 7 1.575 0.1295995094872426 13.047377966029439 59.41551825887225 0 0 0
446 0 8 -1.05 0.19729750502266297 15.003059890020317 59.740977603417576 0 0 0
467 0 8 -1.05 2.085208538528649 13.115818759474587 59.740843895003614 0 0 0
464 0 3 -0.804 2.50763208969955 15.431025612746305 57.56676299408619 0 0 0
600 0 9 -0.975 4.201267218169798 15.239294203624446 59.794319103231715 0 0 0
608 0 9 -0.975 6.561481690585054 12.879074636340963 59.79401693752052 0 0 0
596 2 7 1.575 2.1528412508378367 15.071476136843746 59.414910782710585 0 0 0
620 1 7 1.575 7.501096209976494 16.179718575689982 60.676129991148585 0 0 0
599 0 10 0.425 4.769509161538918 14.671483439338154 59.16286195967189 0 0 0
605 0 10 0.425 5.993337563256294 13.447245597934105 59.162024905423856 0 0 0
450 0 3 -0.804 4.011381713805138 16.933910370036774 57.56761017065099 0 0 0
473 0 8 -1.05 0.05680768887755924 15.143770210339401 63.9830712250948 0 0 0
486 0 8 -1.05 25.429727447444936 12.908015746456535 61.78221316543882 -1 0 0
489 1 7 1.575 1.141179884667143 14.059417672671175 62.815429765070476 0 0 0
644 0 8 -1.05 4.411631266696596 13.089763590166989 61.7564972801255 0 0 0
640 0 8 -1.05 2.225594994357433 12.975105229761683 63.98304200249374 0 0 0
629 0 8 -1.05 4.353919647580528 15.086747822826535 63.79766532845012 0 0 0
617 0 8 -1.05 6.350776388360314 15.029095391402704 61.756323539960164 0 0 0
626 0 8 -1.05 2.2927048042008424 15.210825541789648 61.782402954717135 0 0 0
631 0 8 -1.05 6.4085250215234595 13.032143067965 63.79755538187502 0 0 0
618 2 6 1.05 6.4475881837631555 15.125787467837606 63.88461217293035 0 0 0
632 2 7 1.575 6.437109878044261 13.003538554746957 61.81115789681937 0 0 0
628 2 7 1.575 4.325235738034155 15.115224725393244 61.81140528726336 0 0 0
643 2 6 1.05 4.314853904924636 12.993027889470836 63.88467904743239 0 0 0
789 1 7 1.575 11.740857252792544 11.939542448302047 60.67704075920313 0 0 0
299 0 10 0.425 10.232336639348082 9.208018155212423 59.16456061204696 0 0 0
301 0 9 -0.975 10.800258596897581 8.640202036320426 59.79552478549441 0 0 0
609 0 10 0.425 9.01021915188539 10.430487839941724 59.16533964848911 0 0 0
180 0 8 -1.05 10.648410187549482 8.792088145234278 63.79837629851065 0 0 0
194 0 8 -1.05 10.590770541290595 10.78916290813885 61.75762420112897 0 0 0
192 0 8 -1.05 8.59373771600265 10.846793295213583 63.79841053943683 0 0 0
179 0 8 -1.05 8.651344465990547 8.849645554958608 61.75744575272579 0 0 0
178 2 6 1.05 8.554738174854496 8.753001553999514 63.885206854757904 0 0 0
635 2 7 1.575 8.565233755025098 10.875253579927916 61.81250591273608 0 0 0
329 2 7 1.575 10.677012071316195 8.763528511771401 61.81231087984218 0 0 0
787 2 6 1.05 10.687558121283711 10.885796850026807 63.885260189067225 0 0 0
598 0 3 -0.804 12.489870648200544 16.934314576134955 57.56723177501313 0 0 0
611 2 7 1.575 8.609804697525531 13.047203527378526 59.415654294252285 0 0 0
594 0 8 -1.05 8.676944814388738 15.002969974976274 59.74097476568547 0 0 0
615 0 8 -1.05 10.565272122930283 13.116072774702488 59.741355042148726 0 0 0
612 0 3 -0.804 10.986561260077671 15.430995734141547 57.56706906236982 0 0 0
744 2 7 1.575 10.632513237191802 15.071702218485612 59.415455920499134 0 0 0
748 0 9 -0.975 12.680920846808045 15.239766096030756 59.79430133733783 0 0 0
621 0 8 -1.05 8.536788410028912 15.143857375727556 63.98299573429152 0 0 0
634 0 8 -1.05 8.46969632172509 12.908041878009382 61.782193815325904 0 0 0
637 1 7 1.575 9.621140020948458 14.059458931398082 62.81538883536977 0 0 0
788 0 8 -1.05 10.705524114498186 12.975101967774256 63.98304012598857 0 0 0
774 0 8 -1.05 10.772597246968964 15.210903143293129 61.78228826650256 0 0 0
758 0 9 -0.975 16.92179958018721 10.998900487311959 59.79491973691591 0 0 0
306 2 7 1.575 12.849038679438921 8.807849476116804 59.41528927316876 0 0 0
297 0 8 -1.05 14.804580590190332 8.875226864954946 59.74153792344635 0 0 0
320 0 8 -1.05 12.917073997263968 10.76317763642322 59.7420367985412 0 0 0
305 0 3 -0.804 15.22808829348885 11.185585973292028 57.568425774263474 0 0 0
755 2 7 1.575 14.872768795667886 10.831028025439455 59.4175097930666 0 0 0
310 0 3 -0.804 16.731398007361697 12.688915213835676 57.566025226545925 0 0 0
331 0 8 -1.05 12.709634305117968 8.667873032972553 61.782623988401795 0 0 0
323 0 8 -1.05 14.94564406639519 8.735121290569714 63.98294444285378 0 0 0
334 1 7 1.575 13.861214121429159 9.819497428305727 62.81534514437576 0 0 0
781 0 8 -1.05 15.012532284660447 10.97075115782864 61.781653909247154 0 0 0
790 0 8 -1.05 12.776877649912441 10.903904984516297 63.98303111195741 0 0 0
747 0 10 0.425 13.249167280493651 14.671651419177698 59.1623143056953 0 0 0
756 0 9 -0.975 15.040827569732631 12.879957838428956 59.794814636157476 0 0 0
768 1 7 1.575 15.981217915378595 16.179290431685633 60.67594353224572 0 0 0
753 0 10 0.425 14.47202914398653 13.447117662824391 59.16373513458674 0 0 0
792 0 8 -1.05 12.891609414382614 13.08996551830868 61.75682517361283 0 0 0
777 0 8 -1.05 12.833876952547065 15.08685744464789 63.797720151621995 0 0 0
765 0 8 -1.05 14.83082061568289 15.029240598328592 61.75661660870421 0 0 0
779 0 8 -1.05 14.888494974886125 13.032095564149309 63.79786732208156 0 0 0
766 2 6 1.05 14.927545359104366 15.125881260996808 63.884723290219156 0 0 0
780 2 7 1.575 14.91720771419087 13.003700408614495 61.81172071290291 0 0 0
776 2 7 1.575 12.805256978906845 15.115434652711336 61.811347485257585 0 0 0
791 2 6 1.05 12.79478505101318 12.993162436979723 63.88485139328557 0 0 0
493 1 7 1.575 20.221229588668777 11.939193175743 60.67590352823519 -1 0 0
757 0 10 0.425 17.488968487592302 10.430218955957695 59.16397972722845 0 0 0
5 0 9 -0.975 19.28155217865268 8.639131637906235 59.79425081332084 -1 0 0
10 2 7 1.575 21.329897489587772 8.806960704959392 59.414824069956765 -1 0 0
1 0 8 -1.05 23.285187327024108 8.87542207218463 59.74164920875928 -1 0 0
24 0 8 -1.05 21.39735827720031 10.76275184332469 59.740530214589995 -1 0 0
9 0 3 -0.804 23.710046727308924 11.186728113978289 57.567471132488436 -1 0 0
3 0 10 0.425 18.71311067799086 9.20701298020043 59.162130785992254 -1 0 0
459 2 7 1.575 23.353208164160574 10.830915371202186 59.41599800525112 -1 0 0
14 0 3 -0.804 25.213709277662435 12.689691891622374 57.56715394107168 -1 0 0
462 0 9 -0.975 25.401873895014802 10.998750716274285 59.79523153343317 -1 0 0
35 0 8 -1.05 21.189648612821042 8.667943496849446 61.78251184991985 -1 0 0
27 0 8 -1.05 23.425541165127306 8.735087063952577 63.98315687347721 -1 0 0
33 2 7 1.575 19.157171060725574 8.763533387896905 61.811283085724895 -1 0 0
38 1 7 1.575 22.341194205185527 9.819407226214693 62.815446603902764 -1 0 0
485 0 8 -1.05 23.49250293028585 10.970888117966489 61.78208280268754 -1 0 0
494 0 8 -1.05 21.256846103423126 10.90380467876182 63.98304334984789 -1 0 0
491 2 6 1.05 19.167624808121275 10.88575773719426 63.88472214650692 -1 0 0
328 0 8 -1.05 19.12847145008647 8.792053512837962 63.79764499667743 0 0 0
342 0 8 -1.05 19.071023407426313 10.789002843226564 61.756625971277394 0 0 0
340 0 8 -1.05 17.073853096559827 10.846687899584323 63.79783505411621 0 0 0
327 0 8 -1.05 17.13165175504427 8.849736569650146 61.756523800030166 0 0 0
326 2 6 1.05 17.034839196994326 8.75299441228836 63.884723110841605 0 0 0
783 2 7 1.575 17.045477599988562 10.875437094528916 61.811746414070086 0 0 0
452 0 9 -0.975 21.161983465408415 15.2385692008329 59.79525030294939 -1 0 0
460 0 9 -0.975 23.521002988822417 12.879606192983383 59.79469762773211 -1 0 0
448 2 7 1.575 19.11314608009025 15.071023267243108 59.41567961066089 -1 0 0
472 1 7 1.575 24.461326092804384 16.179421921052427 60.67649697311204 -1 0 0
451 0 10 0.425 21.729939359523307 14.670774968715186 59.16441152151339 -1 0 0
457 0 10 0.425 22.95300617594398 13.447523423863446 59.1630165532828 -1 0 0
759 2 7 1.575 17.089271965808802 13.047405587579654 59.41378841716598 0 0 0
742 0 8 -1.05 17.157318101712676 15.003007036057552 59.7403042604603 0 0 0
763 0 8 -1.05 19.044815142692478 13.115286649759597 59.74052221802204 0 0 0
760 0 3 -0.804 19.471376855301276 15.42618674862741 57.5672399704536 0 0 0
746 0 3 -0.804 20.97491694077542 16.929334839226478 57.56753717759046 0 0 0
496 0 8 -1.05 21.37145572212819 13.089571474038763 61.756654214613135 -1 0 0
492 0 8 -1.05 19.185587418739935 12.975057917971387 63.98295939586505 -1 0 0
481 0 8 -1.05 21.313752161294516 15.0867605472365 63.797894171592176 -1 0 0
469 0 8 -1.05 23.31086573940263 15.029091120404363 61.7568897659366 -1 0 0
478 0 8 -1.05 19.252487431872634 15.210815683904656 61.78185967651738 -1 0 0
483 0 8 -1.05 23.368443481586933 13.032113428581154 63.79782908145073 -1 0 0
470 2 6 1.05 23.407574795235234 15.125799025448567 63.88491178461718 -1 0 0
484 2 7 1.575 23.397056766729587 13.003575362574985 61.811621365518135 -1 0 0
480 2 7 1.575 21.285275227042682 15.115206355336712 61.8119266124139 -1 0 0
495 2 6 1.05 21.274765965633627 12.992966236936041 63.8847947659458 -1 0 0
769 0 8 -1.05 17.01681911641639 15.143840707834151 63.98295603485925 0 0 0
782 0 8 -1.05 16.949682366352736 12.907947842511312 61.78266502482251 0 0 0
785 1 7 1.575 18.10122358163105 14.059466006036638 62.81538191757746 0 0 0
894 0 3 -0.804 4.013405113716581 25.410816894957044 57.567108511307715 0 0 0
907 2 7 1.575 0.12970906618921876 21.527612616232485 59.41702920983406 0 0 0
890 0 8 -1.05 0.19770434131036443 23.48331166424222 59.741626054472675 0 0 0
911 0 8 -1.05 2.085292493884547 21.59567946240442 59.74201905330522 0 0 0
908 0 3 -0.804 2.51008420877939 23.907504194116967 57.56708550218717 0 0 0
597 0 9 -0.975 2.320335550547745 17.12026264043481 59.79546282658646 0 0 0
602 2 7 1.575 4.3692816288107625 17.287924251258318 59.41630826253019 0 0 0
593 0 8 -1.05 6.325150961482335 17.356152837893685 59.7406061763567 0 0 0
616 0 8 -1.05 4.437401365087769 19.243499380363215 59.74159599429794 0 0 0
601 0 3 -0.804 6.748435425836426 19.67108261769263 57.566388643939305 0 0 0
595 0 10 0.425 1.7527349568997068 17.688469608836545 59.16469165122189 0 0 0
1044 0 9 -0.975 4.201822036274369 23.718884537926325 59.79511067030861 0 0 0
1052 0 9 -0.975 6.560148202692968 21.36045228804813 59.7954109938835 0 0 0
1040 2 7 1.575 2.1532423056243957 23.551066893618668 59.415481983016214 0 0 0
1051 2 7 1.575 6.392636741093634 19.311838164395912 59.414468138402974 0 0 0
1064 1 7 1.575 7.501029553017398 24.65975990424937 60.67731264502483 0 0 0
1085 1 7 1.575 3.2613833027016037 20.419458630216816 60.67732646863482 0 0 0
1043 0 10 0.425 4.769679007333902 23.150893110521533 59.163981833869435 0 0 0
1049 0 10 0.425 5.992773816598007 21.92867682854827 59.164848849795916 0 0 0
606 0 3 -0.804 8.251835809437553 21.174267643109623 57.56778868032013 0 0 0
1054 0 9 -0.975 8.440968739715267 19.479625775640045 59.794525206355964 0 0 0
905 0 10 0.425 0.5301769127555233 18.911525820437554 59.1638329644744 0 0 0
476 0 8 -1.05 2.1686120669083198 17.27204063288154 63.7981947950238 0 0 0
490 0 8 -1.05 2.1108026564740823 19.26904783624503 61.75735259390269 0 0 0
488 0 8 -1.05 0.1138669086666407 19.326754886937007 63.79816423646488 0 0 0
475 0 8 -1.05 0.17147413187101168 17.329619965000614 61.75724894494337 0 0 0
474 2 6 1.05 0.07479758968750677 17.233023353276284 63.88505560122905 0 0 0
917 0 8 -1.05 0.05683742350029349 23.62379347002676 63.98306522281468 0 0 0
930 0 8 -1.05 25.42981354648672 21.388038949547152 61.78195557340006 -1 0 0
931 2 7 1.575 0.08519451945194757 19.355153746115114 61.81200891583496 0 0 0
933 1 7 1.575 1.1412071513260584 22.539398550079024 62.81543198995121 0 0 0
627 0 8 -1.05 4.229961669439077 17.14797240123493 61.78191911263141 0 0 0
619 0 8 -1.05 6.465470440480952 17.214985682384064 63.983045587915775 0 0 0
625 2 7 1.575 2.1970625112718896 17.243462009097858 61.812185396643535 0 0 0
630 1 7 1.575 5.381136292181009 18.299413473147588 62.81546934904998 0 0 0
1088 0 8 -1.05 4.41154407088768 21.569864690432897 61.75764071306973 0 0 0
1084 0 8 -1.05 2.2255260806134776 21.455047118122035 63.983151969736625 0 0 0
1077 0 8 -1.05 6.53272821433207 19.45096779024405 61.782736067418625 0 0 0
1073 0 8 -1.05 4.353845577496252 23.566856591515762 63.79832247213427 0 0 0
1086 0 8 -1.05 4.296775254745833 19.383774894269337 63.98312499816811 0 0 0
1061 0 8 -1.05 6.350838619599791 23.509192729302605 61.757518203978854 0 0 0
1070 0 8 -1.05 2.2927176914062946 23.691008045390802 61.78257400829117 0 0 0
1075 0 8 -1.05 6.4086214741959 21.51216486238336 63.798410261024344 0 0 0
1062 2 6 1.05 6.44753958974371 23.605877969476683 63.885273076669996 0 0 0
1083 2 6 1.05 2.207536657452385 19.36580051760133 63.88517043673796 0 0 0
1076 2 7 1.575 6.437050174230437 21.483566173300343 61.81236479281704 0 0 0
1072 2 7 1.575 4.325312671142499 23.595387466275632 61.81215162420926 0 0 0
1087 2 6 1.05 4.314839416943667 21.473126844831647 63.88526674551618 0 0 0
1192 0 9 -0.975 12.681083880514432 23.719563062137485 59.794357116733586 0 0 0
1233 1 7 1.575 11.740863759443249 20.41981357977082 60.67658838729447 0 0 0
1188 2 7 1.575 10.632568174108178 23.55171250324897 59.41533271046035 0 0 0
1053 0 10 0.425 9.009508031683625 18.91191214301981 59.16244134859069 0 0 0
1055 2 7 1.575 8.608974944280149 21.52825309029717 59.41651795802596 0 0 0
1038 0 8 -1.05 8.677255219948398 23.48368957329712 59.74203935626705 0 0 0
1059 0 8 -1.05 10.564812814295763 21.596041916158683 59.74101934839941 0 0 0
1056 0 3 -0.804 10.98736104316253 23.910184644031858 57.56699653564741 0 0 0
745 0 9 -0.975 10.79989264249575 17.120621708792953 59.795466013301116 0 0 0
743 0 10 0.425 10.23220371508352 17.688406048163596 59.16520854811673 0 0 0
1042 0 3 -0.804 12.490265333807953 25.413849514784072 57.567070144844145 0 0 0
624 0 8 -1.05 10.64845622297623 17.272178773601606 63.79816700681373 0 0 0