LAMMPS data file via write_data, version 17 Feb 2022, timestep = 443

4311 atoms
10 atom types
36 bonds
6 bond types
54 angles
6 angle types
0 dihedrals
2 dihedral types
9 impropers
2 improper types

0 25.44 xlo xhi
0 25.44 ylo yhi
-64.778423 32.908 zlo zhi

Masses

1 12.011
2 1.008
3 15.9994
4 15.9994
5 1.008
6 55.845
7 55.845
8 15.9994
9 15.9994
10 1.008

Pair Coeffs # lj/cut/coul/long

1 0.0988 3.31521
2 0.0161 2.4473
3 0.1463 3.04812
4 0.093 3.24287
5 0.0047 0.537925
6 9.0298e-07 4.9062
7 9.0298e-07 4.9062
8 0.1554 3.16554
9 0.1554 3.16554
10 0 0

Bond Coeffs # harmonic

1 361.8 1.105
2 652.57 1.218
3 383.13 1.351
4 563.51 0.973
5 554.135 1
6 0 2.08

Angle Coeffs # harmonic

1 51.617 106.55
2 65.93 123.65
3 65.262 109.49
4 115.745 122.1
5 118.817 130.25
6 30 109.47

Dihedral Coeffs # fourier

1 1 2.3 2 180
2 2 2.3 2 180 1.9 1 0

Improper Coeffs # cvff

1 10.5 -1 2
2 10.5 -1 2

Atoms # full

71 0 7 1.575 3.316466321882295 4.336155548486689 -52.023491687571905 0 0 0
78 0 6 1.05 6.6416423975234675 5.475758790523675 -53.03276632407575 0 0 0
3 0 6 1.05 25.32341762443646 3.167367452479347 -53.58013063104497 -1 0 0
74 0 6 1.05 4.512566822903027 7.551684788443019 -53.15984826650091 0 0 0
7 0 6 1.05 2.5988574089156256 1.3020941880386574 -53.74534208500648 0 0 0
6 0 8 -1.05 2.0300280336168073 3.003005086094499 -52.698246038141946 0 0 0
75 0 8 -1.05 4.617375814854863 5.720056086138041 -52.116693084610226 0 0 0
70 0 8 -1.05 2.498256501448508 7.562976582644941 -52.89246255502485 0 0 0
4 0 8 -1.05 25.330384188419604 1.2420462710073452 -52.63583860998819 -1 0 0
73 0 8 -1.05 4.193058622472277 7.795213226304779 -50.28785454728958 0 0 0
19 0 8 -1.05 6.718640605804303 3.4259147929666534 -53.01529535038439 0 0 0
79 0 8 -1.05 6.895608933451334 5.217771772612557 -50.76721114856857 0 0 0
77 0 8 -1.05 6.504006156039109 7.457870129300715 -52.843871103159145 0 0 0
5 0 7 1.575 0.9785338893510496 2.129564722762769 -51.28110829627625 0 0 0
76 0 7 1.575 5.529950433605015 6.435857594242024 -50.303154593246866 0 0 0
11 0 6 1.05 4.534390026909072 1.2364121110872042 -51.3534404812121 0 0 0
68 0 6 1.05 2.4645435232136648 5.318560803787261 -48.92405171488421 0 0 0
63 0 6 1.05 0.016130174378068334 7.684751186443967 -49.02278681075301 0 0 0
62 0 7 1.575 0.15742181703372876 5.447125567651439 -51.24623362142548 0 0 0
12 0 7 1.575 4.4995124028739095 3.308920103855031 -48.933302191233366 0 0 0
17 0 6 1.05 6.564971552572174 1.167316319437712 -49.00280894500175 0 0 0
18 0 7 1.575 6.6098969554946745 3.292079114961498 -51.088810362535526 0 0 0
69 0 7 1.575 2.244979923299082 7.566713395388847 -51.00758720071347 0 0 0
15 0 8 -1.05 6.55742424705483 1.2816603749927147 -51.00403109986573 0 0 0
64 0 8 -1.05 0.13982233953865686 7.757748728765362 -46.78601108822555 0 0 0
65 0 8 -1.05 0.17254853453085217 7.459834551076834 -51.09562130479735 0 0 0
16 0 8 -1.05 6.472456849764079 3.197178822971028 -48.91395605917499 0 0 0
14 0 8 -1.05 4.508329529441964 3.2340660199607365 -50.881027423341685 0 0 0
67 0 8 -1.05 2.0157441061680483 7.320216617960621 -48.88527450340413 0 0 0
13 0 8 -1.05 4.420936335856769 1.308359776211665 -48.603447925554406 0 0 0
66 0 8 -1.05 2.0593027206635712 5.3678599077151 -50.88450097824142 0 0 0
8 0 8 -1.05 2.4232342903056163 0.9861158716540394 -50.74282863654646 0 0 0
10 0 8 -1.05 4.509021056310359 1.0740495409565043 -53.33399450831037 0 0 0
61 0 8 -1.05 25.34551522193734 5.120655124606498 -53.10664275059509 -1 0 0
2 0 8 -1.05 25.08669107783496 3.4875128175652477 -50.97046834949587 -1 0 0
20 0 7 1.575 7.640387555409687 0.2619324620084961 -52.2767979036637 0 0 0
81 0 8 -1.05 8.656142320640006 5.221950927081892 -53.232278105909764 0 0 0
22 0 8 -1.05 8.631733324474432 3.236949369056748 -51.122070310376245 0 0 0
91 0 7 1.575 11.772354812765995 4.494324049039932 -52.176544873044186 0 0 0
23 0 7 1.575 8.700069758241836 3.3067452566774467 -53.15868829680337 0 0 0
27 0 7 1.575 10.849731700617705 1.2756357103292055 -53.07677437966428 0 0 0
26 0 8 -1.05 10.723570124902924 3.2153328779318144 -53.12466166121229 0 0 0
90 0 8 -1.05 10.991958599411854 7.784706274843274 -53.048051464135064 0 0 0
24 0 8 -1.05 8.903855456628307 1.3219778803821713 -53.2439275147116 0 0 0
25 0 7 1.575 9.741562204720559 2.325810808787137 -49.91542552575695 0 0 0
88 0 7 1.575 10.820796534977159 5.4959919745984624 -48.8767831023476 0 0 0
83 0 7 1.575 8.641693970714933 7.5965091153241175 -48.936487758651545 0 0 0
82 0 6 1.05 8.796075744128988 5.684093180435891 -51.31927200903825 0 0 0
89 0 6 1.05 10.803092447847545 7.630301217736315 -51.040383305372444 0 0 0
84 0 8 -1.05 8.85772475979036 5.619180495425826 -48.67203031972727 0 0 0
85 0 8 -1.05 8.736482555588248 7.718660865380787 -50.87479872149671 0 0 0
87 0 8 -1.05 10.731582800689905 7.504123408231952 -48.79030794475863 0 0 0
86 0 8 -1.05 10.786212164940066 5.512356219104823 -50.83521128479253 0 0 0
28 0 8 -1.05 10.842230116571097 1.2675799886352948 -51.05781563939505 0 0 0
98 0 7 1.575 15.004253388159736 5.464152318445275 -53.04100639085525 0 0 0
94 0 7 1.575 12.934964276881722 7.6087812331080755 -53.02714083580248 0 0 0
95 0 8 -1.05 13.063787264142173 5.613100893111478 -53.0210794882047 0 0 0
93 0 8 -1.05 12.899772152301802 7.648765313884835 -50.99822728245696 0 0 0
39 0 8 -1.05 15.114881934619984 3.438647331127768 -53.065267456927394 0 0 0
99 0 8 -1.05 15.22028372378593 5.5216495100731695 -50.925335418791384 0 0 0
97 0 8 -1.05 14.916254044971975 7.455277819586522 -53.078047741148715 0 0 0
96 0 7 1.575 14.0222191726218 6.609524901015686 -49.90928297722393 0 0 0
31 0 6 1.05 12.856884117420764 1.4018727067193704 -51.00809323448416 0 0 0
32 0 7 1.575 12.888170180716124 3.3926785690058536 -48.92520296932372 0 0 0
37 0 7 1.575 15.101204678079817 1.2253404043953144 -49.087103451643166 0 0 0
38 0 6 1.05 15.026462412137326 3.4620022501872154 -51.02833952245069 0 0 0
35 0 8 -1.05 14.895322753574321 1.3938263117577598 -51.04004712839935 0 0 0
36 0 8 -1.05 14.883745102968039 3.216942943935521 -48.91163378197746 0 0 0
34 0 8 -1.05 12.891616393837547 3.4551524619642104 -50.88097437307197 0 0 0
33 0 8 -1.05 13.043548287898744 1.3097100136169215 -48.80826398529634 0 0 0
30 0 8 -1.05 12.899119307861639 1.201620534926234 -53.09771777657181 0 0 0
40 0 7 1.575 15.020261558896376 1.4300859893254292 -53.03510782705746 0 0 0
60 0 7 1.575 24.306364917428752 25.200936748038316 -51.80358462600015 0 -1 0
50 0 8 -1.05 21.517255710495284 24.974011547864375 -51.96569991037241 0 -1 0
48 0 8 -1.05 19.40431630327609 1.105493215268084 -51.124906129400166 0 0 0
106 0 8 -1.05 19.31353161610839 5.658399849490705 -50.99647069892787 0 0 0
53 0 8 -1.05 21.335397831074246 1.2897018559195002 -48.65005222327481 0 0 0
107 0 8 -1.05 19.31938277680781 7.676510149639169 -48.60056552239053 0 0 0
54 0 8 -1.05 21.369620893980496 2.9670609106238457 -50.87006478710267 0 0 0
56 0 8 -1.05 23.265949255243168 3.1451280567538142 -48.2148121193013 0 0 0
105 0 8 -1.05 17.39640681071843 7.5940301930157 -51.072209875949454 0 0 0
104 0 8 -1.05 17.268623777580235 5.686994485361386 -48.862250590693016 0 0 0
55 0 8 -1.05 23.30790876385529 1.1868182933480722 -50.823409569274986 0 0 0
109 0 7 1.575 19.418251386882734 7.624492955219831 -51.328038963039205 0 0 0
58 0 7 1.575 23.245937850171945 3.107680104646348 -51.49911975200295 0 0 0
57 0 6 1.05 23.502567071536923 1.1917981592978693 -48.795289005244264 0 0 0
52 0 6 1.05 21.34673387753682 3.379241202593003 -48.8482820644942 0 0 0
102 0 7 1.575 17.25529778299796 5.578316894726373 -51.09529625214356 0 0 0
103 0 6 1.05 17.231234212418567 7.761968200009843 -49.02324752748909 0 0 0
108 0 6 1.05 19.33531457277972 5.570554997036931 -48.94884995543561 0 0 0
51 0 7 1.575 21.298905174420636 0.9979423632134664 -50.627507364425384 0 0 0
116 0 7 1.575 22.77545048095573 6.406856852030139 -50.09080200738123 0 0 0
45 0 7 1.575 18.27696495737993 2.3028529227826726 -50.12381130487872 0 0 0
117 0 8 -1.05 23.306433380488166 7.448082813868999 -53.13509145265324 0 0 0
119 0 8 -1.05 24.593238996556988 5.645391334009242 -49.450516415414626 0 0 0
59 0 8 -1.05 23.28991036144092 3.3422287267601583 -53.39689705808793 0 0 0
113 0 8 -1.05 21.295617062279163 7.663038715737991 -50.606346654234756 0 0 0
44 0 8 -1.05 16.970176912025238 1.4096179016943393 -53.35417975733426 0 0 0
110 0 8 -1.05 19.74149786373798 7.875050128630912 -53.20723580160451 0 0 0
115 0 8 -1.05 22.500156443509653 5.1562163842357425 -51.55589976855437 0 0 0
46 0 8 -1.05 19.34112250231703 3.400084107922053 -52.93934261460263 0 0 0
47 0 6 1.05 18.98391008054417 1.4563400319825854 -53.1690952147506 0 0 0
114 0 6 1.05 21.64416338189658 8.228605778573863 -53.87672001135473 0 0 0
43 0 6 1.05 17.26801714417406 3.4771684460066488 -53.13698002971038 0 0 0
118 0 6 1.05 23.429973440125522 5.454470199782314 -53.45150532531274 0 0 0
111 0 7 1.575 20.554674968352284 4.442334818924653 -51.89278700221499 0 0 0
42 0 8 -1.05 17.14771856065914 3.60103238383558 -50.932596600716536 0 0 0
101 0 8 -1.05 16.9481346365861 5.45600238072991 -53.01033813955472 0 0 0
140 0 7 1.575 7.646129431956519 8.782926818866454 -52.14861018815035 0 0 0
128 0 8 -1.05 2.394922480678834 9.55684392342124 -50.75868024442153 0 0 0
130 0 8 -1.05 4.357158403881821 9.521541621552073 -52.85618084444957 0 0 0
123 0 7 1.575 0.3169962548050055 11.792210671433018 -53.11353912578497 0 0 0
127 0 6 1.05 2.3752535213136703 9.647716997656529 -53.225906459787105 0 0 0
126 0 8 -1.05 2.262465530516943 11.70366035694863 -53.031292238729606 0 0 0
124 0 8 -1.05 0.33249286224893176 9.823820998797313 -53.17771649255445 0 0 0
139 0 8 -1.05 6.945589774589829 12.17076603876396 -53.146620024620624 0 0 0
125 0 7 1.575 1.3338949314284432 10.886219148912671 -49.937558330614415 0 0 0
131 0 7 1.575 4.4562028769960635 9.792757111670195 -50.98217482721396 0 0 0
132 0 7 1.575 4.544065634637151 11.958606152763387 -48.90710351544004 0 0 0
137 0 6 1.05 6.606279035378304 9.760702019562608 -48.88672188950723 0 0 0
138 0 6 1.05 6.553202770360362 11.843129781575888 -51.172303583362456 0 0 0
135 0 8 -1.05 6.48113832241709 9.787706078105064 -50.910248945801726 0 0 0
136 0 8 -1.05 6.534106934903636 11.89365438325096 -48.761727795635935 0 0 0
134 0 8 -1.05 4.454060733305633 11.82157099741511 -50.877895791806594 0 0 0
133 0 8 -1.05 4.5291083177399525 9.98114289848698 -48.81144355602929 0 0 0
122 0 8 -1.05 0.20776069961852558 11.91430005336389 -51.04267590411668 0 0 0
191 0 7 1.575 3.4897638662925425 12.930084108172984 -52.273563031966006 0 0 0
198 0 7 1.575 6.667667271829807 14.081966521296332 -53.04711573813949 0 0 0
194 0 6 1.05 4.595579823564427 16.157788276983062 -53.26537931578326 0 0 0
195 0 8 -1.05 4.737424954840217 14.107290009371765 -53.095085287625714 0 0 0
190 0 8 -1.05 2.5353668820251443 16.325446599781934 -53.11303680462118 0 0 0
193 0 8 -1.05 4.405188990129992 16.21221787870822 -50.916024006269204 0 0 0
199 0 8 -1.05 6.674812354865669 13.965120673062874 -51.01501503365987 0 0 0
197 0 8 -1.05 6.7169771236843525 16.012016244043675 -53.17912222785922 0 0 0
196 0 7 1.575 5.5645801691344685 15.080262492487446 -49.951842769840326 0 0 0
188 0 6 1.05 2.4412381895931814 14.034125034413274 -49.078924233012756 0 0 0
183 0 7 1.575 0.30700009115072424 16.111880576718665 -48.96212673099468 0 0 0
182 0 6 1.05 0.3707323334246706 13.983879816580433 -51.26753286680797 0 0 0
189 0 7 1.575 2.4473387406677705 16.080205951670678 -51.210740074009756 0 0 0
184 0 8 -1.05 0.41361462803860943 14.142690752021725 -48.71530622598355 0 0 0
185 0 8 -1.05 0.4288253200389176 16.07197669603584 -50.933691774325915 0 0 0
187 0 8 -1.05 2.3047380574421417 16.086964019662624 -48.81634889122111 0 0 0
186 0 8 -1.05 2.4510036567656255 14.09496331949288 -51.063244783776916 0 0 0
181 0 8 -1.05 0.15452088159080016 13.756474008479305 -53.24151040124449 0 0 0
142 0 8 -1.05 8.71875765928826 11.919765408236765 -50.98726898855687 0 0 0
148 0 8 -1.05 10.949950648374532 9.755749637363348 -50.98335816076598 0 0 0
143 0 7 1.575 8.843458561734039 11.909040313552389 -53.0089766267304 0 0 0
147 0 7 1.575 10.863316928670535 9.739411391066003 -53.01147302064877 0 0 0
146 0 8 -1.05 10.815766430815236 11.770106046072948 -53.079178961461544 0 0 0
144 0 8 -1.05 8.906411156336134 9.942099651278554 -53.01502672374396 0 0 0
145 0 7 1.575 9.766668756079463 10.768567155956317 -49.90513756592482 0 0 0
201 0 8 -1.05 8.867109752982929 13.965662972028307 -52.99191642751109 0 0 0
211 0 7 1.575 12.077271394229424 12.776931528332508 -52.08333951247165 0 0 0
210 0 8 -1.05 11.55494025683274 16.373672808578146 -53.09269550004942 0 0 0
208 0 7 1.575 10.959661031807554 14.037184363545142 -49.0808369057689 0 0 0
203 0 6 1.05 8.829904112302971 16.201133659287265 -49.13337564581467 0 0 0
202 0 6 1.05 8.662075127998177 13.94507889716447 -50.905715136274125 0 0 0
209 0 7 1.575 10.130465737095202 15.32633602937797 -52.44833742344235 0 0 0
204 0 8 -1.05 8.995995214083843 14.098554175523027 -48.90703930589837 0 0 0
205 0 8 -1.05 8.851936085839858 16.12438677377715 -51.20882570237919 0 0 0
207 0 8 -1.05 11.096569798883637 16.0322995322925 -48.816532661948365 0 0 0
206 0 8 -1.05 10.87300352069213 14.048944245538744 -51.065131567715596 0 0 0
160 0 7 1.575 16.179686131785388 8.654273150864903 -52.29585407445831 0 0 0
150 0 8 -1.05 12.829178837615636 9.587714545592016 -53.07235945166649 0 0 0
159 0 8 -1.05 15.258850822562582 11.94096366741519 -53.020937785314516 0 0 0
151 0 6 1.05 13.034614219582902 9.67929442670982 -51.05043393022001 0 0 0
152 0 7 1.575 12.952821828174068 11.741165630096106 -48.88151979393424 0 0 0
157 0 6 1.05 15.110364785636989 9.687998295147455 -48.89761503317724 0 0 0
158 0 7 1.575 15.161026270424145 11.641525136585685 -51.112765070508786 0 0 0
155 0 8 -1.05 15.168812646214505 9.679621168125031 -50.948527006558884 0 0 0
156 0 8 -1.05 14.93344048067664 11.723520882399468 -48.75828526429013 0 0 0
154 0 8 -1.05 13.159004762851016 11.749648097203869 -50.84427230013843 0 0 0
153 0 8 -1.05 13.01431220954901 9.776076246573647 -48.7757817787339 0 0 0
218 0 6 1.05 15.000602174164545 13.90172122226057 -53.408854605657375 0 0 0
214 0 7 1.575 13.477919195777226 16.718628412012933 -52.95934854514672 0 0 0
215 0 8 -1.05 13.327219269828998 14.218733345654403 -52.2657320818601 0 0 0
213 0 8 -1.05 13.610115902522642 16.680901282164108 -50.966798647625254 0 0 0
219 0 8 -1.05 15.398820209363802 13.550007535708806 -50.59804137659846 0 0 0
217 0 8 -1.05 15.184489995099497 15.913877031798147 -53.34693538449658 0 0 0
216 0 7 1.575 14.018462741017235 14.865259114909875 -50.53769681492566 0 0 0
173 0 8 -1.05 21.6018442735954 9.96860606182345 -48.90204296586748 0 0 0
174 0 8 -1.05 21.498836636272816 11.89622036398358 -50.903375754459596 0 0 0
176 0 8 -1.05 23.485981816569637 11.846892774947147 -48.810275175973686 0 0 0
175 0 8 -1.05 23.60021859167533 9.683300781634358 -50.922472653458016 0 0 0
178 0 6 1.05 23.578145374092117 11.850326892299613 -51.21667835335556 0 0 0
177 0 7 1.575 23.604310157732154 9.885577787118375 -48.97278728757396 0 0 0
172 0 7 1.575 21.470341268383827 11.935494294346679 -48.95055328448271 0 0 0
171 0 6 1.05 21.557506560021867 9.858190557806081 -51.22186496493252 0 0 0
165 0 7 1.575 18.354512169277534 10.727877901867336 -49.89849724577237 0 0 0
179 0 8 -1.05 23.788768848624976 11.930867847662384 -53.19841095261474 0 0 0
164 0 8 -1.05 17.363062115836946 9.844329421971292 -53.22980095996219 0 0 0
166 0 8 -1.05 19.131373890745408 11.802840077832906 -53.182729940101275 0 0 0
167 0 7 1.575 19.32762676704118 9.85217129994578 -53.13866260481882 0 0 0
163 0 7 1.575 17.20135200261689 11.87100002829417 -53.162201310606925 0 0 0
170 0 8 -1.05 21.250518949298865 10.0116571412536 -53.18319331309302 0 0 0
168 0 8 -1.05 19.379800902226208 9.605970589431832 -51.09151249799655 0 0 0
162 0 8 -1.05 17.200357619845036 11.683682639730394 -51.096878649045635 0 0 0
180 0 7 1.575 24.573484059682965 8.660022429828905 -52.30956713083514 0 0 0
226 0 8 -1.05 19.40363137178768 13.855339894499041 -51.022026965209875 0 0 0
227 0 8 -1.05 19.258882332513828 15.904313837097362 -48.97243736680836 0 0 0
225 0 8 -1.05 17.36666355388276 15.801758603682908 -50.968658357938665 0 0 0
224 0 8 -1.05 17.349136050158542 13.95767474222608 -48.56002423413955 0 0 0
229 0 7 1.575 19.4419261809167 15.83469929456849 -51.12613128838736 0 0 0
222 0 6 1.05 17.3775259894688 13.744137040359785 -51.14207005482322 0 0 0
223 0 7 1.575 17.257204308855076 15.985218376295611 -48.996021399872376 0 0 0
228 0 6 1.05 19.414731446001387 13.884535356898258 -48.99919154379858 0 0 0
236 0 7 1.575 22.614765423498667 14.967861485951156 -49.99770358205215 0 0 0
237 0 8 -1.05 23.571535340748117 15.854344552216077 -53.33286711098973 0 0 0
239 0 8 -1.05 23.710904639439516 13.93462001444236 -51.139754694541736 0 0 0
233 0 8 -1.05 21.40881315140964 15.962936249174238 -51.06589488816238 0 0 0
230 0 8 -1.05 19.1578305894724 15.963049201799159 -53.05468135428525 0 0 0
235 0 8 -1.05 21.66312160382769 13.948709684707135 -53.314172992755545 0 0 0
234 0 6 1.05 21.510165909482552 15.969704222941068 -53.46182610964518 0 0 0
238 0 7 1.575 23.62389173674553 13.903353654475412 -53.221948001535544 0 0 0
231 0 7 1.575 20.513555407835018 12.824323762894673 -52.329103280045224 0 0 0
221 0 8 -1.05 17.048001730378637 13.902011986409502 -53.14058388523187 0 0 0
260 0 7 1.575 7.672634264904774 17.38642580380475 -52.29028746647817 0 0 0
248 0 8 -1.05 2.4472736856967123 18.13246110451395 -51.04120718851706 0 0 0
250 0 8 -1.05 4.410983484818778 18.201404208359957 -53.11309739695102 0 0 0
311 0 7 1.575 3.523678297705461 21.390427848864192 -52.29143895517923 0 0 0
318 0 6 1.05 6.656379432846369 22.463168381578924 -53.29179239289189 0 0 0
243 0 7 1.575 0.31553715933536863 20.279646372623812 -53.121910523784 0 0 0
314 0 7 1.575 4.5941944297283195 24.55938116612122 -53.269612018682416 0 0 0
247 0 7 1.575 2.473362517302722 18.263459464892346 -53.123073104022296 0 0 0
246 0 8 -1.05 2.267462442531279 20.23383265042061 -53.125002836404725 0 0 0
315 0 8 -1.05 4.582959842120827 22.620369973971002 -53.266598184267245 0 0 0
310 0 8 -1.05 2.574576519865815 24.79224392267237 -53.24658314184347 0 0 0
244 0 8 -1.05 0.48308344781995266 18.322377068705322 -53.067567112312446 0 0 0
313 0 8 -1.05 4.3796161042004025 24.588635276054124 -51.1662951317762 0 0 0
259 0 8 -1.05 7.016391247039588 20.48492119035491 -53.07339735812443 0 0 0
319 0 8 -1.05 6.617711088369296 22.380968537428178 -50.99831684792237 0 0 0
317 0 8 -1.05 6.539436466547941 24.47690406806904 -53.19897213033648 0 0 0
245 0 7 1.575 1.3382872674061086 19.26009724201497 -49.98937433641825 0 0 0
316 0 7 1.575 5.495621106356495 23.552916772357047 -50.003067734430104 0 0 0
251 0 6 1.05 4.562010257194976 18.273666550224988 -51.113904498448 0 0 0
308 0 6 1.05 2.428950902608547 22.423605253398044 -48.99190086027296 0 0 0
303 0 6 1.05 0.11207567589715459 24.48408096173906 -48.936226156791804 0 0 0
302 0 7 1.575 0.3372032637485246 22.460289045145036 -51.120098675828146 0 0 0
252 0 6 1.05 4.506221773786544 20.359681855159025 -48.988452132406586 0 0 0
257 0 7 1.575 6.672497783179325 18.24104843636202 -48.95648112962706 0 0 0
258 0 7 1.575 6.599016460637249 20.395015746525655 -51.162062630617044 0 0 0
309 0 7 1.575 2.4038253941898713 24.505056315473357 -51.36653007149142 0 0 0
255 0 8 -1.05 6.702375275396959 18.382436229088572 -50.932453747421995 0 0 0
304 0 8 -1.05 0.2823009755911348 22.453267102591283 -49.08832948536944 0 0 0
305 0 8 -1.05 0.4734598738989938 24.48498391209186 -50.953704001423745 0 0 0
256 0 8 -1.05 6.631978082156742 20.257607869487696 -48.93517553491496 0 0 0
254 0 8 -1.05 4.611063858693302 20.394985615447002 -51.017563875416 0 0 0
307 0 8 -1.05 2.2203488356771603 24.55235566475886 -48.47258269932649 0 0 0
253 0 8 -1.05 4.703144717477845 18.303147230028344 -48.85193299918094 0 0 0
306 0 8 -1.05 2.376104106481101 22.536163056998447 -51.06689396379917 0 0 0
301 0 8 -1.05 0.11663299603693023 22.268472840854887 -53.03842299316734 0 0 0
242 0 8 -1.05 0.22948097578663784 20.455447154060774 -51.02361076412556 0 0 0
326 0 8 -1.05 10.767264366029092 22.653763815871635 -50.9562776376761 0 0 0
327 0 8 -1.05 10.661325955005168 24.523716619706878 -48.84895446443002 0 0 0
325 0 8 -1.05 8.651482444691627 24.665999912168406 -50.91338116939483 0 0 0
324 0 8 -1.05 8.757020106968607 22.603406043739746 -48.88277520602873 0 0 0
329 0 6 1.05 10.714582291817118 24.69951190456417 -50.99311746651611 0 0 0
322 0 6 1.05 8.621457544062674 22.597918686789264 -51.12645003159474 0 0 0
323 0 7 1.575 8.642855654819405 24.61418126247866 -48.946712560305684 0 0 0
328 0 7 1.575 10.7319331659719 22.48596697462842 -48.970836682362076 0 0 0
265 0 7 1.575 9.781092830121185 19.395004039932125 -49.98195468442717 0 0 0
264 0 8 -1.05 9.107599883898503 18.452588230305885 -53.00626329053579 0 0 0
330 0 8 -1.05 11.044710171225313 24.642976086875688 -53.09252558398511 0 0 0
266 0 8 -1.05 11.009605242731483 20.6271411501542 -53.185774550167146 0 0 0
267 0 6 1.05 11.155558506078467 18.432606452918478 -52.909350695500294 0 0 0
263 0 7 1.575 8.959461140146642 20.390728330184604 -53.05843708461939 0 0 0
321 0 8 -1.05 8.99571457963788 22.370459926791835 -53.14243576973563 0 0 0
262 0 8 -1.05 8.691952462233937 20.5126421337832 -51.03753188388608 0 0 0
268 0 8 -1.05 11.115441314281068 18.377995861646852 -50.83884432744715 0 0 0
331 0 7 1.575 10.927337088364737 22.604887280407855 -52.948315563751365 0 0 0
280 0 7 1.575 17.15165651720217 15.951426669939359 -53.06533940594554 0 0 0
273 0 8 -1.05 13.428072357657586 18.593787791715062 -49.02717914430618 0 0 0
274 0 8 -1.05 14.826719900223944 20.95391564239553 -49.2371872898871 0 0 0
276 0 8 -1.05 12.958352809752629 20.454614217568597 -46.84173363838066 0 0 0
275 0 8 -1.05 16.491411341624858 19.494481829043014 -50.8841435077213 0 0 0
278 0 7 1.575 15.850339344220112 21.284944390523233 -50.91506983096051 0 0 0
277 0 6 1.05 15.230557645116038 18.08040260179873 -50.01603974787289 0 0 0
272 0 7 1.575 12.985495969031888 20.453089820189923 -48.814394765506286 0 0 0
271 0 6 1.05 13.12717103109417 20.54775550028912 -53.31589238424452 0 0 0
336 0 7 1.575 13.826780060217597 23.635775871000362 -49.898319969385184 0 0 0
337 0 8 -1.05 14.879411183662757 24.848353838780472 -53.38006378765917 0 0 0
339 0 8 -1.05 15.109125298386887 23.037463124960325 -51.157848927819266 0 0 0
279 0 8 -1.05 15.07873045122857 20.93154346890807 -52.71566352770015 0 0 0
333 0 8 -1.05 12.81428996950839 24.752861071466043 -51.024616521275775 0 0 0
335 0 8 -1.05 12.99968756067808 22.74567911175985 -53.262949503039785 0 0 0
334 0 7 1.575 12.98876381369977 24.699861752938062 -52.98266061149227 0 0 0
270 0 8 -1.05 13.163852991915254 18.582541519125638 -53.266631979881126 0 0 0
338 0 7 1.575 15.048770739257181 22.862352323399076 -53.163817605384935 0 0 0
346 0 8 -1.05 20.095453235769636 22.59278051999028 -51.38513266248292 0 0 0
293 0 8 -1.05 21.57226425673446 18.08443972427512 -49.075810433344316 0 0 0
347 0 8 -1.05 18.09221588155837 24.27455998250284 -48.0015746693724 0 0 0
294 0 8 -1.05 21.562337174493763 19.99419873296893 -51.09971618449539 0 0 0
296 0 8 -1.05 21.373449070631544 20.107687751434757 -47.16907416998502 0 0 0
345 0 8 -1.05 17.672917509201195 24.381379084800706 -51.287668889139475 0 0 0
344 0 8 -1.05 15.884372016279954 22.59165412169747 -46.81595637503095 0 0 0
295 0 8 -1.05 23.554558253430912 17.880815897143904 -51.11646706700965 0 0 0
349 0 7 1.575 19.55862858417198 24.501771405307007 -51.56895228105641 0 0 0
298 0 6 1.05 23.651742278338645 19.895854632409787 -51.18709742837795 0 0 0
297 0 6 1.05 23.634459053561876 18.078362689466783 -49.115658005340975 0 0 0
292 0 7 1.575 21.46176200595451 20.08420684947596 -49.143750542399374 0 0 0
342 0 6 1.05 17.218597089279356 24.70706425745909 -53.320413300550854 0 0 0
343 0 7 1.575 16.92869303471243 24.092870375997485 -49.59758336087458 0 0 0
348 0 6 1.05 19.35732944403696 22.1765594904742 -49.53635001592977 0 0 0
291 0 7 1.575 21.554750096482966 17.94017073298265 -51.27868421609249 0 0 0
356 0 7 1.575 22.063111197599785 23.49444604562649 -50.203157810608516 0 0 0
285 0 7 1.575 18.333981208430288 19.156387105006935 -50.45321540186118 0 0 0
357 0 8 -1.05 23.58410929569869 23.311749043491204 -51.433910951481884 0 0 0
359 0 8 -1.05 23.514662435796126 20.144696714037273 -49.0543628797714 0 0 0
299 0 8 -1.05 23.830432253351688 20.2561758967154 -53.110246815998366 0 0 0
353 0 8 -1.05 20.41209054887144 24.521456813088914 -49.646775998529165 0 0 0
284 0 8 -1.05 17.25438134629553 17.879417726984148 -53.36883215386807 0 0 0
350 0 8 -1.05 19.275506909067527 24.95450813830234 -53.4874215526403 0 0 0
355 0 8 -1.05 21.564443715193644 22.163135236825568 -53.632539777403935 0 0 0
286 0 8 -1.05 18.818926268625855 20.073015326445226 -52.25994432842728 0 0 0
287 0 6 1.05 19.226942865000854 18.049151616423178 -53.14684681307811 0 0 0
354 0 6 1.05 20.974542038208117 24.014666370687635 -53.79293868493703 0 0 0
283 0 6 1.05 16.79043063762639 19.773243424402864 -53.07191094631518 0 0 0
358 0 6 1.05 23.53365171516522 22.182444179384117 -53.311932323270504 0 0 0
351 0 7 1.575 20.54192378499293 20.997746842306018 -52.45936970720753 0 0 0
290 0 8 -1.05 21.19730264707872 17.964736508953408 -53.171372152350806 0 0 0
288 0 8 -1.05 19.527266170281038 17.795832117994912 -50.99175496247041 0 0 0
282 0 8 -1.05 17.19801982398392 22.10020891131684 -49.49930757212083 0 0 0
341 0 8 -1.05 16.811379527133596 22.8171080066662 -53.81988009984486 0 0 0
300 0 7 1.575 24.778979749508004 16.952502491701598 -52.377139909309676 0 0 0
416 0 7 1.575 7.572640901548546 4.422397745355966 -47.92471447710799 0 0 0
368 0 6 1.05 2.299336249284324 3.387946236249692 -46.77613919148126 0 0 0
415 0 6 1.05 6.573675280797919 7.5725525455526945 -46.83831239135127 0 0 0
361 0 7 1.575 0.13546918622482187 1.2606064591138546 -46.79639954364275 0 0 0
408 0 7 1.575 4.518656021894284 5.386237948984357 -46.808591023393326 0 0 0
371 0 8 -1.05 4.37200777570611 3.331269675434639 -46.81398835425799 0 0 0
411 0 8 -1.05 4.422853505110827 7.454725151753545 -46.78197188116544 0 0 0
80 0 8 -1.05 6.644785907989041 7.57477119291851 -48.873500811541156 0 0 0
72 0 8 -1.05 4.505557894251942 5.302782322302872 -48.805792812151395 0 0 0
365 0 8 -1.05 2.373779983354677 1.2626822829711177 -46.65580404599761 0 0 0
406 0 8 -1.05 2.472150018420346 5.392382622342952 -46.787693018030446 0 0 0
412 0 8 -1.05 6.490908284190873 5.4684534672511855 -46.69241125296159 0 0 0
364 0 8 -1.05 0.2484457101746044 3.283778624567898 -46.813512551623454 0 0 0
9 0 8 -1.05 2.4884087390272893 3.184966407778093 -48.80404343493472 0 0 0
373 0 8 -1.05 6.513210152615319 1.044776510794528 -46.51941935246768 0 0 0
404 0 8 -1.05 0.2982476622398432 9.803507857195525 -44.7180704813467 0 0 0
1 0 8 -1.05 0.34651972406956044 1.1357777946913856 -48.73508316994589 0 0 0
372 0 7 1.575 4.554880206351074 1.3148197381275197 -46.65666293939026 0 0 0
405 0 7 1.575 1.3777834561272213 6.651892189910585 -45.849420597377744 0 0 0
369 0 7 1.575 2.415881860238856 1.0799052138387686 -48.79988914907847 0 0 0
663 0 7 1.575 3.4610873228447856 4.434769013745507 -43.63313452931121 0 0 0
414 0 6 1.05 6.591140789735778 5.403029099238987 -44.66569229256227 0 0 0
362 0 6 1.05 0.2500656079202176 3.417260369745321 -44.81600881484199 0 0 0
409 0 7 1.575 4.481390084389308 7.631297364263473 -44.804932963327936 0 0 0
367 0 7 1.575 2.351512139278251 1.2403435153232967 -44.66802095694544 0 0 0
366 0 8 -1.05 2.281706309715794 3.2193823248756526 -44.52542410530307 0 0 0
410 0 8 -1.05 4.481954053523727 5.602491051550085 -44.72968617298403 0 0 0
407 0 8 -1.05 2.446232033205391 7.6205874438163255 -44.53175572653129 0 0 0
363 0 8 -1.05 0.3593081932214923 1.2818511014695453 -44.74006821883878 0 0 0
665 0 8 -1.05 4.3423205530694915 7.620483071039041 -42.47282627336604 0 0 0
374 0 8 -1.05 6.800732298106597 3.259556394351683 -44.42290724609485 0 0 0
667 0 8 -1.05 6.7089108894882346 5.424917744403859 -42.431389280648496 0 0 0
413 0 8 -1.05 6.453935238548865 7.532789065459664 -44.57721027218298 0 0 0
615 0 7 1.575 1.3984598308759686 2.1373775517273654 -41.558032228965715 0 0 0
666 0 7 1.575 5.534970234298753 6.549076681672231 -41.44840090689159 0 0 0
618 0 7 1.575 4.474055271205072 1.2893380133159644 -42.581235515896985 0 0 0
655 0 6 1.05 0.3143981537193366 5.503266457080401 -42.725575076597366 0 0 0
625 0 6 1.05 6.63213438590757 3.393396243857362 -42.43658375868824 0 0 0
662 0 7 1.575 2.353573411871823 7.658493700768667 -42.55662005584864 0 0 0
622 0 8 -1.05 6.457076528735951 1.1945489757956798 -42.56321269411713 0 0 0
658 0 8 -1.05 0.2972834459732689 7.576377970580428 -42.36536300719705 0 0 0
621 0 8 -1.05 4.464298146632354 3.2910250398958922 -42.36672887101729 0 0 0
659 0 8 -1.05 2.349495262508363 5.591974750363667 -42.492025802511165 0 0 0
616 0 8 -1.05 2.51837157628902 1.1174001100683548 -42.660435358531664 0 0 0
370 0 8 -1.05 4.444294628721162 1.1783293543195317 -44.583448137334344 0 0 0
403 0 8 -1.05 0.2145312651009202 5.503876896423764 -44.73208634427815 0 0 0
614 0 8 -1.05 0.12220151525785683 3.46539649804303 -42.158020254875105 0 0 0
626 0 7 1.575 6.8083572617505075 1.2613329225145955 -44.586348062857404 0 0 0
418 0 8 -1.05 8.675580156736459 7.7398462571142215 -46.762503420604475 0 0 0
21 0 8 -1.05 8.678430717535395 1.1591684404122253 -48.79246265863247 0 0 0
382 0 6 1.05 10.813313777650238 3.384091378538667 -46.76853225653117 0 0 0
375 0 6 1.05 8.733263277337254 1.3094211130871225 -46.79513558356973 0 0 0
379 0 8 -1.05 10.833780458071859 1.2900226468482245 -46.59019081498283 0 0 0
420 0 8 -1.05 10.934407359990725 5.465704031271402 -46.75719061554229 0 0 0
378 0 8 -1.05 8.708555121302622 3.412426030446483 -46.665037666500844 0 0 0
29 0 8 -1.05 10.894399939284774 3.4476249515409765 -48.82102629687022 0 0 0
419 0 7 1.575 9.746375800700767 6.548237290973658 -45.741067183397895 0 0 0
383 0 7 1.575 11.823491602082475 0.19501062855962373 -47.82120666959728 0 0 0
417 0 8 -1.05 8.748986717343698 5.418142343598075 -44.49160696836517 0 0 0