LAMMPS data file via write_data, version 17 Feb 2022, timestep = 381

4311 atoms
10 atom types
36 bonds
6 bond types
54 angles
6 angle types
0 dihedrals
2 dihedral types
9 impropers
2 improper types

0 25.44 xlo xhi
0 25.44 ylo yhi
-64.778423 32.908 zlo zhi

Masses

1 12.011
2 1.008
3 15.9994
4 15.9994
5 1.008
6 55.845
7 55.845
8 15.9994
9 15.9994
10 1.008

Pair Coeffs # lj/cut/coul/long

1 0.0988 3.31521
2 0.0161 2.4473
3 0.1463 3.04812
4 0.093 3.24287
5 0.0047 0.537925
6 9.0298e-07 4.9062
7 9.0298e-07 4.9062
8 0.1554 3.16554
9 0.1554 3.16554
10 0 0

Bond Coeffs # harmonic

1 361.8 1.105
2 652.57 1.218
3 383.13 1.351
4 563.51 0.973
5 554.135 1
6 0 2.08

Angle Coeffs # harmonic

1 51.617 106.55
2 65.93 123.65
3 65.262 109.49
4 115.745 122.1
5 118.817 130.25
6 30 109.47

Dihedral Coeffs # fourier

1 1 2.3 2 180
2 2 2.3 2 180 1.9 1 0

Improper Coeffs # cvff

1 10.5 -1 2
2 10.5 -1 2

Atoms # full

71 0 7 1.575 3.560360342261618 4.313845634700281 -52.31659486757407 0 0 0
78 0 6 1.05 6.790385085672354 5.31734924591904 -53.83168604904428 0 0 0
3 0 6 1.05 0.2662491162860127 3.427172755444628 -53.31152281842058 0 0 0
74 0 6 1.05 4.532297872517338 7.585412820208413 -53.73055518644372 0 0 0
7 0 6 1.05 2.3575951267381976 1.2844049937020399 -53.46791078030563 0 0 0
6 0 8 -1.05 2.233940324386397 3.252821238299684 -53.15825004265449 0 0 0
75 0 8 -1.05 4.829103611750811 5.582713144706646 -52.975203398382 0 0 0
70 0 8 -1.05 2.6111109601883977 7.5863828084789615 -53.10058424775459 0 0 0
4 0 8 -1.05 0.2830540138697823 1.109196778121126 -53.07872546149538 0 0 0
73 0 8 -1.05 4.557447967740362 7.723099560656207 -50.81625797073933 0 0 0
19 0 8 -1.05 6.898104002790906 3.3674312492952256 -53.20354133113278 0 0 0
79 0 8 -1.05 7.042763292339984 5.22670693268397 -50.99778360923298 0 0 0
77 0 8 -1.05 6.702274637187588 7.365391973347771 -52.996349833088935 0 0 0
5 0 7 1.575 0.4814643660457432 1.5636734614815337 -51.04628934773577 0 0 0
76 0 7 1.575 5.788835787690725 6.498374055527107 -51.533518179073496 0 0 0
11 0 6 1.05 4.740930422685911 1.3117959322386379 -51.66322377168016 0 0 0
68 0 6 1.05 2.5134051207821573 5.360329192954333 -49.02491483976111 0 0 0
63 0 6 1.05 0.5653472344539138 7.638932235688993 -49.064215222860895 0 0 0
62 0 7 1.575 0.6213976552870273 5.415757831370096 -51.19533694736548 0 0 0
12 0 7 1.575 4.669607918954099 3.435996263102999 -49.11948625579568 0 0 0
17 0 6 1.05 6.683015325844683 1.1794237911740775 -49.21849379032005 0 0 0
18 0 7 1.575 6.8285773514418535 3.2988203892124197 -51.26172030377234 0 0 0
69 0 7 1.575 2.5553074226152415 7.563017662003429 -51.17888762209767 0 0 0
15 0 8 -1.05 6.7379688293286275 1.2878239288418565 -51.220502469941884 0 0 0
64 0 8 -1.05 0.22941719495521887 7.677398767346213 -46.95542189381297 0 0 0
65 0 8 -1.05 0.3581545907752261 7.449570695207503 -51.10942038350924 0 0 0
16 0 8 -1.05 6.638564027837949 3.2134003803245954 -49.06399115591448 0 0 0
14 0 8 -1.05 4.739534544509065 3.311127759370805 -51.07989763269587 0 0 0
67 0 8 -1.05 2.569216600030583 7.437350006273128 -49.092594654540086 0 0 0
13 0 8 -1.05 4.578948262004865 1.372435867067534 -48.755804929003844 0 0 0
66 0 8 -1.05 2.5475003059070627 5.504776235712966 -51.10927359063997 0 0 0
8 0 8 -1.05 2.4103348390077555 1.0596307021855411 -51.03045024898557 0 0 0
10 0 8 -1.05 4.2923587951880595 0.954815435375983 -53.54758933630547 0 0 0
61 0 8 -1.05 25.3243773451432 5.378746383882035 -52.970939007915646 -1 0 0
2 0 8 -1.05 0.09852291183122212 3.505488970585968 -51.11101051781369 0 0 0
20 0 7 1.575 7.78983669088148 0.1279082489938976 -52.46930144112156 0 0 0
81 0 8 -1.05 8.781311001590534 5.132003795505827 -53.6349369239869 0 0 0
22 0 8 -1.05 8.845162173680874 3.2744760100588577 -51.29897448259819 0 0 0
91 0 7 1.575 11.947255772332602 4.388208139895303 -52.36105974951088 0 0 0
23 0 7 1.575 8.88661868709974 3.225958565926065 -53.34004812273647 0 0 0
27 0 7 1.575 11.010589037568321 1.195121455869247 -53.230093394697796 0 0 0
26 0 8 -1.05 10.899179956854647 3.129470121577176 -53.3214033070377 0 0 0
90 0 8 -1.05 11.073873706626873 7.748803260166937 -53.23210602597982 0 0 0
24 0 8 -1.05 9.038849184183082 1.2661665189281675 -53.37072821093757 0 0 0
25 0 7 1.575 9.8712276655182 2.261364642258291 -50.07867663683343 0 0 0
88 0 7 1.575 10.865287580182919 5.447418139970956 -49.253495553168584 0 0 0
83 0 7 1.575 8.703542228859503 7.542434718060033 -49.019585715557575 0 0 0
82 0 6 1.05 8.90510106988206 5.705100972890399 -51.747550082717716 0 0 0
89 0 6 1.05 10.892932116713917 7.633816319542033 -51.23449939795981 0 0 0
84 0 8 -1.05 9.015907390967513 5.579264727180043 -48.64110673753395 0 0 0
85 0 8 -1.05 8.804484618468313 7.647261064447073 -50.980323834908184 0 0 0
87 0 8 -1.05 10.863687097614317 7.40989112379767 -48.8822499812437 0 0 0
86 0 8 -1.05 10.871048990164203 5.491018060934676 -51.153301134990436 0 0 0
28 0 8 -1.05 10.969982974005212 1.17344143591274 -51.19116089081658 0 0 0
98 0 7 1.575 15.17990611065085 5.340610637942783 -53.12707727694548 0 0 0
94 0 7 1.575 13.048563608117268 7.5333622851078434 -53.18879482963199 0 0 0
95 0 8 -1.05 13.219769386909388 5.523895346894608 -53.191643545631806 0 0 0
93 0 8 -1.05 12.982140104325136 7.623379985027051 -51.15721759481555 0 0 0
39 0 8 -1.05 15.25859364757603 3.273989867426084 -53.035926303955 0 0 0
99 0 8 -1.05 15.224138433689353 5.425067041366589 -51.0412238279377 0 0 0
97 0 8 -1.05 15.061863216748128 7.345640991670175 -53.19660342976908 0 0 0
96 0 7 1.575 14.025221355860976 6.521559999843192 -50.03914782376437 0 0 0
31 0 6 1.05 12.973376743440816 1.264063011449965 -51.11104888574189 0 0 0
32 0 7 1.575 12.943998946512153 3.343747622672494 -48.979357915642446 0 0 0
37 0 7 1.575 15.098799309812817 1.2058122720623439 -49.079033477417205 0 0 0
38 0 6 1.05 15.080869351186792 3.3777907516389236 -51.00995299121381 0 0 0
35 0 8 -1.05 15.020460280185231 1.315505542768718 -51.01665411160107 0 0 0
36 0 8 -1.05 14.939263872664043 3.2253719005243684 -48.869520044701304 0 0 0
34 0 8 -1.05 12.94522843313057 3.3849516101096158 -50.9400736077018 0 0 0
33 0 8 -1.05 13.068355354260456 1.3129356259783864 -48.87574708925283 0 0 0
30 0 8 -1.05 13.18027206222908 1.089734478479395 -53.174138523620215 0 0 0
40 0 7 1.575 15.184570693780888 1.2558678873074514 -53.013817314509005 0 0 0
60 0 7 1.575 0.35209115716217965 24.436438451503612 -53.14219716819885 1 -1 0
50 0 8 -1.05 21.806547475678876 1.043244711864259 -53.79425889106538 0 0 0
48 0 8 -1.05 19.672153959856328 0.49867244556355517 -49.63944013221762 0 0 0
106 0 8 -1.05 19.318209131077804 5.569661470147801 -51.0197701036372 0 0 0
53 0 8 -1.05 21.907193192292432 1.6047389968058554 -47.98871714490297 0 0 0
107 0 8 -1.05 19.277513774790147 7.625112412109977 -48.5625040886195 0 0 0
54 0 8 -1.05 21.624360700615725 2.7509005333576426 -50.630392707481796 0 0 0
56 0 8 -1.05 23.553251874086055 3.7808800948555654 -49.106353478818384 0 0 0
105 0 8 -1.05 17.34217512632673 7.524651668409526 -51.17453973886344 0 0 0
104 0 8 -1.05 17.272478330123025 5.674621620559168 -49.033146134141425 0 0 0
55 0 8 -1.05 23.97497204729178 1.3793579547507884 -51.10455378638116 0 0 0
109 0 7 1.575 19.307180923043884 7.5421515511870805 -51.502352037464235 0 0 0
58 0 7 1.575 23.50388235004844 3.3248782957964647 -51.04730394473488 0 0 0
57 0 6 1.05 22.48313849537801 0.962902367325222 -49.86696876340616 0 0 0
52 0 6 1.05 21.57037423718575 3.5178331683843336 -48.75386772513972 0 0 0
102 0 7 1.575 17.253462202403565 5.470046416741273 -51.04700997592387 0 0 0
103 0 6 1.05 17.215360463489187 7.7374410926980195 -49.109458577622085 0 0 0
108 0 6 1.05 19.2924866925784 5.568237367705691 -48.94662743821748 0 0 0
51 0 7 1.575 23.58130414585894 1.0986884504695307 -53.05375574383808 0 0 0
116 0 7 1.575 22.854699688144386 6.856329536913384 -50.903544508026876 0 0 0
45 0 7 1.575 18.555225686594945 2.2038533129531537 -50.123808287548925 0 0 0
117 0 8 -1.05 23.261965114373194 7.347874711188307 -52.771226947773464 0 0 0
119 0 8 -1.05 0.41941603965816043 5.577347014289255 -49.15471338747242 1 0 0
59 0 8 -1.05 23.651608338671263 3.142893604419405 -53.09598944710879 0 0 0
113 0 8 -1.05 21.144909911521292 7.6917620287940975 -50.779003891704754 0 0 0
44 0 8 -1.05 17.135602528581316 1.205663229477107 -53.29335890528904 0 0 0
110 0 8 -1.05 19.732142450404034 7.812664602918151 -53.35700267560238 0 0 0
115 0 8 -1.05 22.40551005278471 5.068018881688811 -51.561544174926865 0 0 0
46 0 8 -1.05 19.32358172745955 2.770042134719381 -52.02709306257529 0 0 0
47 0 6 1.05 19.892537671928114 1.4360822250974408 -53.44495565227215 0 0 0
114 0 6 1.05 21.690879023296393 8.101363262015477 -53.83856135138783 0 0 0
43 0 6 1.05 17.376786476096377 3.162747277668057 -52.81948956809076 0 0 0
118 0 6 1.05 23.42320306505639 5.233825805478993 -53.37847324460356 0 0 0
111 0 7 1.575 20.59098776684294 4.158701446894543 -51.4872632185319 0 0 0
42 0 8 -1.05 17.151812199514985 3.4708519052849325 -50.68306838132744 0 0 0
101 0 8 -1.05 17.137891051531692 5.1698153278000065 -52.96196326354704 0 0 0
140 0 7 1.575 7.795894422025876 8.775663605837908 -52.30847733980685 0 0 0
128 0 8 -1.05 2.5873437803630184 9.54687797094622 -51.060217964254505 0 0 0
130 0 8 -1.05 4.523286932026811 9.481570397193028 -53.12081131695619 0 0 0
123 0 7 1.575 0.36933323408202307 11.802195237244316 -53.17105251013987 0 0 0
127 0 6 1.05 2.4707679602126187 9.664281100315398 -53.30692558199073 0 0 0
126 0 8 -1.05 2.3175059088274055 11.69953561917214 -53.154258088172924 0 0 0
124 0 8 -1.05 0.3982779927564543 9.819072874800165 -53.28738592205666 0 0 0
139 0 8 -1.05 6.8914226298411005 12.05492133464961 -53.16551073975398 0 0 0
125 0 7 1.575 1.44765803559781 10.719488262947038 -50.09752648825432 0 0 0
131 0 7 1.575 4.634416899503932 9.759582765422422 -51.22683992608365 0 0 0
132 0 7 1.575 4.5983558368687225 11.7575317775036 -48.993468491461805 0 0 0
137 0 6 1.05 6.781178510866227 9.756813204214431 -49.01655134668986 0 0 0
138 0 6 1.05 6.689246906913485 11.852617500788911 -51.16500863348152 0 0 0
135 0 8 -1.05 6.649610616586895 9.751299871536078 -51.064418485217146 0 0 0
136 0 8 -1.05 6.592677769059195 11.816135916535352 -48.84839764690316 0 0 0
134 0 8 -1.05 4.5641485054544635 11.769174815275868 -50.979793864896294 0 0 0
133 0 8 -1.05 4.703452036495557 9.778006800874678 -49.03878408103698 0 0 0
122 0 8 -1.05 0.2389007641387369 11.778939820480785 -51.103902005408536 0 0 0
191 0 7 1.575 3.5556680673773498 12.857652497077092 -52.330233770382634 0 0 0
198 0 7 1.575 6.712103429639225 14.00967581884924 -53.10914781583958 0 0 0
194 0 6 1.05 4.60936806505353 16.126909020775685 -53.6866752193813 0 0 0
195 0 8 -1.05 4.745196489495227 14.139460431198616 -53.055861368260885 0 0 0
190 0 8 -1.05 2.5875151988082625 16.31950897254476 -53.2643841499341 0 0 0
193 0 8 -1.05 4.025581304906942 16.121589545740527 -50.15455838271163 0 0 0
199 0 8 -1.05 6.748064114107848 14.004476588678504 -51.04813219699996 0 0 0
197 0 8 -1.05 6.6295562748627255 15.952486673283753 -53.32334738974883 0 0 0
196 0 7 1.575 5.538760136050773 14.951909518179061 -49.935027832845655 0 0 0
188 0 6 1.05 2.4942501991549006 13.925907969844708 -49.193723602762844 0 0 0
183 0 7 1.575 0.2672854093209954 16.009676928117106 -48.89905502191421 0 0 0
182 0 6 1.05 0.3712788761891211 13.874523080921207 -51.143673004440615 0 0 0
189 0 7 1.575 2.4354040295411017 15.991622753346082 -51.40301561858656 0 0 0
184 0 8 -1.05 0.3873658240927253 14.024566863278162 -48.934895754158354 0 0 0
185 0 8 -1.05 0.5182824483383721 16.06456311809143 -50.862806670462696 0 0 0
187 0 8 -1.05 2.243521274857492 15.662450802829934 -48.06225617140551 0 0 0
186 0 8 -1.05 2.490457841191667 14.039819015834665 -51.15784666966438 0 0 0
181 0 8 -1.05 0.226395592392078 13.788421539480193 -53.13815590335871 0 0 0
142 0 8 -1.05 8.78870540901363 11.89430741835189 -51.089729616105984 0 0 0
148 0 8 -1.05 10.992229068568433 9.701047292458044 -51.16113786019503 0 0 0
143 0 7 1.575 8.860440804307165 11.89792679536387 -53.138516926916296 0 0 0
147 0 7 1.575 10.97320550322892 9.741946814831767 -53.21053460560002 0 0 0
146 0 8 -1.05 10.848795918290786 11.740124120643785 -53.18517631064926 0 0 0
144 0 8 -1.05 8.99293339984823 9.91193635556302 -53.23879083047809 0 0 0
145 0 7 1.575 9.888418750605213 10.76105106215284 -50.039036860783035 0 0 0
201 0 8 -1.05 8.704173227249255 13.870484535324906 -53.117476542650536 0 0 0
211 0 7 1.575 12.061773087033364 12.9523766050438 -52.364709921679285 0 0 0
210 0 8 -1.05 11.222085835475468 16.360468978097522 -53.34442439931328 0 0 0
208 0 7 1.575 10.966289899311603 14.004661337612589 -49.10988698783686 0 0 0
203 0 6 1.05 8.73789811617719 16.02789427578825 -49.047520439423195 0 0 0
202 0 6 1.05 8.826478692626488 13.98906717065133 -51.120403347669345 0 0 0
209 0 7 1.575 10.910296253127516 16.05768766625202 -51.4967645792468 0 0 0
204 0 8 -1.05 9.003411182873739 14.003948609378863 -48.950135967190654 0 0 0
205 0 8 -1.05 8.947716892605543 16.180024789148977 -51.08136644264846 0 0 0
207 0 8 -1.05 10.879118730876774 16.011661319097975 -48.68197070086394 0 0 0
206 0 8 -1.05 10.996101078412995 14.119976673002052 -51.054643287143335 0 0 0
160 0 7 1.575 16.153024992667667 8.680659170987845 -52.38020101120446 0 0 0
150 0 8 -1.05 12.93508320166228 9.50392615385804 -53.25701121388614 0 0 0
159 0 8 -1.05 15.259008692146432 11.988336826438328 -53.067696284296844 0 0 0
151 0 6 1.05 13.078096932787608 9.751252342738207 -51.25851022138184 0 0 0
152 0 7 1.575 12.967135855116856 11.81621520759687 -49.03858423750781 0 0 0
157 0 6 1.05 15.052132606512247 9.680072618854219 -49.107682370651844 0 0 0
158 0 7 1.575 15.136649817369374 11.856383862714337 -51.15650487288655 0 0 0
155 0 8 -1.05 15.167609356796925 9.800870695492677 -51.113798021041525 0 0 0
156 0 8 -1.05 14.93771086868524 11.714142274931426 -49.0317009664096 0 0 0
154 0 8 -1.05 13.095650885062708 11.922071608050713 -51.01069004667734 0 0 0
153 0 8 -1.05 12.965159449148594 9.830364715102498 -48.92052393923571 0 0 0
218 0 6 1.05 15.16271987810984 13.996032260634014 -53.6152080234447 0 0 0
214 0 7 1.575 13.206249053233757 16.176253115553855 -53.251097320970906 0 0 0
215 0 8 -1.05 13.168393567549352 14.215115617719492 -53.25437727409365 0 0 0
213 0 8 -1.05 12.941263401576233 16.126709614561584 -51.18992135488496 0 0 0
219 0 8 -1.05 15.3865526842079 13.82129372095105 -50.701348934745255 0 0 0
217 0 8 -1.05 15.158352530821723 16.048240629159327 -53.11717695020987 0 0 0
216 0 7 1.575 14.079898500517197 15.06089215877178 -50.10321468297396 0 0 0
173 0 8 -1.05 21.60052678316336 9.800773970463133 -49.00836311196799 0 0 0
174 0 8 -1.05 21.388214966430603 11.87186925994447 -50.97318053352322 0 0 0
176 0 8 -1.05 23.424412239763377 11.715510087107361 -48.914393774507175 0 0 0
175 0 8 -1.05 23.579861596937643 9.589053977240145 -51.084748415922135 0 0 0
178 0 6 1.05 23.530597356287448 11.768729135852999 -51.331630152985994 0 0 0
177 0 7 1.575 23.633215504091467 9.753935653389 -49.14010121396028 0 0 0
172 0 7 1.575 21.41001063106825 11.827614258598247 -49.028356057955286 0 0 0
171 0 6 1.05 21.451744278742243 9.838743823215404 -51.276644149123186 0 0 0
165 0 7 1.575 18.313832794336435 10.732078890419924 -50.0749365669063 0 0 0
179 0 8 -1.05 23.857331621310937 11.977756640910753 -53.2837992703911 0 0 0
164 0 8 -1.05 17.381019966122608 9.819983769903578 -53.31063226579974 0 0 0
166 0 8 -1.05 19.16735601738095 11.747278434208583 -53.15927190180056 0 0 0
167 0 7 1.575 19.355745483769592 9.813412399558747 -53.261923061123575 0 0 0
163 0 7 1.575 17.205973238444173 11.8209683918776 -53.22572393787473 0 0 0
170 0 8 -1.05 21.291704845697744 9.907032519383533 -53.25667963263412 0 0 0
168 0 8 -1.05 19.286902048045626 9.55292775267353 -51.22980272309757 0 0 0
162 0 8 -1.05 17.172492489988493 11.844175834136468 -51.12633797686717 0 0 0
180 0 7 1.575 24.75189009798391 8.599910086945007 -52.36360780440954 0 0 0
226 0 8 -1.05 19.325291925672857 14.071133727868741 -51.08816436446222 0 0 0
227 0 8 -1.05 19.23534065184017 16.021793193558008 -48.893128438803934 0 0 0
225 0 8 -1.05 17.41688869194824 16.211720538983343 -51.031947586225634 0 0 0
224 0 8 -1.05 17.374816985720425 14.220629947372014 -48.39245002043167 0 0 0
229 0 7 1.575 19.473964331161735 16.052204508212114 -51.22669154579119 0 0 0
222 0 6 1.05 17.286467792967503 14.141737712286876 -51.55352407415453 0 0 0
223 0 7 1.575 17.256884508166745 16.18357195086868 -49.08438006760693 0 0 0
228 0 6 1.05 19.36346505726121 13.954856251234194 -49.110186771044056 0 0 0
236 0 7 1.575 22.5850432341647 14.929559812491163 -50.019970625400106 0 0 0
237 0 8 -1.05 23.63311722799427 15.919902915989098 -53.0920167571393 0 0 0
239 0 8 -1.05 23.72962797876578 13.841671155204189 -51.061175140242575 0 0 0
233 0 8 -1.05 21.485942515083693 16.145168465135963 -50.9647266027888 0 0 0
230 0 8 -1.05 19.573291642152665 16.04384276464699 -53.132589844563505 0 0 0
235 0 8 -1.05 21.751009020606247 13.997632488075043 -53.17347594218591 0 0 0
234 0 6 1.05 21.605729460431288 16.029834064504993 -53.36077120143338 0 0 0
238 0 7 1.575 23.700483953830023 13.949289416797432 -53.13762120494047 0 0 0
231 0 7 1.575 20.405038333377917 12.956723496853144 -52.348651645699256 0 0 0
221 0 8 -1.05 17.14858589040646 13.737647042243337 -53.4735522451207 0 0 0
260 0 7 1.575 7.705502875893712 17.128655523483385 -52.356883249653286 0 0 0
248 0 8 -1.05 2.455317469496626 18.06921991624667 -51.0863546091444 0 0 0
250 0 8 -1.05 4.449822830507423 18.08293726779426 -53.02651925893485 0 0 0
311 0 7 1.575 3.536288467470827 21.351703207686903 -52.281517122797894 0 0 0
318 0 6 1.05 6.629195037926472 22.431831480983988 -53.34457842080381 0 0 0
243 0 7 1.575 0.3479086107025314 20.3295011333339 -53.102742016906674 0 0 0
314 0 7 1.575 4.522735053644671 24.50077937863298 -53.362687184994066 0 0 0
247 0 7 1.575 2.501270127399372 18.267479528092334 -53.157923680198905 0 0 0
246 0 8 -1.05 2.3024893186355264 20.22994679688282 -53.19665742331494 0 0 0
315 0 8 -1.05 4.528447532891113 22.583608347475323 -53.311785035895205 0 0 0
310 0 8 -1.05 2.3208487573087555 24.61703061178568 -53.14822555392113 0 0 0
244 0 8 -1.05 0.49943149474834525 18.350528857728293 -53.05079627776418 0 0 0
313 0 8 -1.05 4.445357156457826 24.660749208963356 -51.246417477047544 0 0 0
259 0 8 -1.05 6.894395183620058 20.36317298481814 -53.090398366772455 0 0 0
319 0 8 -1.05 6.6435118891869065 22.37232314314979 -51.05658656270103 0 0 0
317 0 8 -1.05 6.4606549757271745 24.486343958861642 -53.27599247908073 0 0 0
245 0 7 1.575 1.3582343706468785 19.18404880062602 -49.97558409700403 0 0 0
316 0 7 1.575 5.566296547558614 23.60058222743464 -50.10659659598159 0 0 0
251 0 6 1.05 4.572919473377475 18.264808220257404 -51.05057542079047 0 0 0
308 0 6 1.05 2.476628557720909 22.396970196191468 -49.029556026125086 0 0 0
303 0 6 1.05 25.43709301154954 24.589275916505766 -49.15985700027621 -1 0 0
302 0 7 1.575 0.3155331444129081 22.39574316508106 -51.01880436638371 0 0 0
252 0 6 1.05 4.530206521121533 20.383167887260377 -49.00747901338505 0 0 0
257 0 7 1.575 6.714176435689225 18.19843940519234 -48.95966037948713 0 0 0
258 0 7 1.575 6.613099932548904 20.39689447234975 -51.170834103001056 0 0 0
309 0 7 1.575 2.5168080977980205 24.493279486889776 -51.1682866630948 0 0 0
255 0 8 -1.05 6.83987603092567 18.240885118990235 -50.93386057020903 0 0 0
304 0 8 -1.05 0.36792460283636047 22.553962482437477 -49.0163407631546 0 0 0
305 0 8 -1.05 0.5206221829268768 24.453915698792194 -51.121894845414566 0 0 0
256 0 8 -1.05 6.673108121565191 20.197567741225026 -49.01550266121348 0 0 0
254 0 8 -1.05 4.630408776826796 20.342341494463717 -51.032666504961405 0 0 0
307 0 8 -1.05 2.438916179802328 24.646613960020403 -48.83917978093003 0 0 0
253 0 8 -1.05 4.752038788399603 18.350109067110964 -48.871963171536066 0 0 0
306 0 8 -1.05 2.423882136053871 22.513722271102434 -51.059099639090924 0 0 0
301 0 8 -1.05 0.2696681365234659 22.45527792266179 -53.0179225660639 0 0 0
242 0 8 -1.05 0.3554778279975503 20.423828500384918 -51.0436767914342 0 0 0
326 0 8 -1.05 10.923578751284838 22.432312135163716 -51.03168779711588 0 0 0
327 0 8 -1.05 10.764305269942243 24.40537455178161 -48.995410835090624 0 0 0
325 0 8 -1.05 8.766125471885731 24.606911758940647 -51.05122469170366 0 0 0
324 0 8 -1.05 8.856172783620297 22.582657851267516 -48.93642635853163 0 0 0
329 0 6 1.05 10.839167874187492 24.491071617924753 -51.30524097544983 0 0 0
322 0 6 1.05 8.739322322234287 22.558746615268987 -51.29189740795761 0 0 0
323 0 7 1.575 8.765942087021267 24.58161636183437 -49.10225116347035 0 0 0
328 0 7 1.575 10.825413094594285 22.340836979686 -49.085303845195256 0 0 0
265 0 7 1.575 9.302415786031249 18.765290486140604 -50.765223100704155 0 0 0
264 0 8 -1.05 9.049684289645743 18.44921627103988 -52.69881152284378 0 0 0
330 0 8 -1.05 11.259814350270588 24.72581732888828 -53.28724527904205 0 0 0
266 0 8 -1.05 10.800145595760613 20.32464476354105 -53.33168280229583 0 0 0
267 0 6 1.05 11.153664384902571 18.362315326550096 -53.65445043448412 0 0 0
263 0 7 1.575 8.849534124513905 20.42422796759488 -53.19157894129798 0 0 0
321 0 8 -1.05 8.672914788140755 22.337304806967214 -53.274057013004516 0 0 0
262 0 8 -1.05 8.64605007555474 20.51172003226061 -51.06180616076068 0 0 0
268 0 8 -1.05 11.025984637231087 17.93625176290964 -50.7098175280907 0 0 0
331 0 7 1.575 11.977378626108964 21.461644544708477 -52.37654559624566 0 0 0
280 0 7 1.575 16.380255069090232 17.31713012524876 -52.391339247553304 0 0 0
273 0 8 -1.05 13.148619352685317 18.37102651374285 -48.99479548582219 0 0 0
274 0 8 -1.05 13.041414354544415 20.380633864092115 -51.06349022183357 0 0 0
276 0 8 -1.05 13.037265349462547 20.36354055748684 -46.958180906761946 0 0 0
275 0 8 -1.05 15.363133003152257 18.46314041817919 -51.13339070560401 0 0 0
278 0 7 1.575 14.984115157808311 20.392515987032 -51.27964591719632 0 0 0
277 0 6 1.05 15.182693018063468 18.218512525703286 -49.1423766696015 0 0 0
272 0 7 1.575 13.000649799168635 20.337568371007283 -49.08322293461967 0 0 0
271 0 6 1.05 13.108255514089748 18.219591804356078 -51.21779682397024 0 0 0
336 0 7 1.575 14.021627885632379 23.412963408085385 -50.08463739624403 0 0 0
337 0 8 -1.05 15.14601101201172 24.64361872283566 -53.24396150732805 0 0 0
339 0 8 -1.05 15.289135617563916 22.384744710056243 -51.0614188752315 0 0 0
279 0 8 -1.05 15.558007413758162 20.68343299932358 -53.06097040281418 0 0 0
333 0 8 -1.05 12.992435832331799 24.619849788714944 -51.11146315641191 0 0 0
335 0 8 -1.05 13.380100868184458 22.603903310000888 -53.06438829124877 0 0 0
334 0 7 1.575 13.157540404409312 24.533122069562225 -53.10673077438841 0 0 0
270 0 8 -1.05 13.123758719864911 18.136254012962425 -53.19906413470594 0 0 0
338 0 7 1.575 15.384316083038966 22.62945567979462 -53.08351036294132 0 0 0
346 0 8 -1.05 20.598335839796224 22.750143579216655 -51.02355798352974 0 0 0
293 0 8 -1.05 21.569643901245815 18.449259959604483 -48.608881689684736 0 0 0
347 0 8 -1.05 17.813542989013367 23.79146570590455 -47.683685334085766 0 0 0
294 0 8 -1.05 21.60943593827688 20.110913994974755 -50.94294205875872 0 0 0
296 0 8 -1.05 23.542309191172436 20.324761846992978 -48.81618228625905 0 0 0
345 0 8 -1.05 18.178004797621874 23.844581579225117 -50.62134897692067 0 0 0
344 0 8 -1.05 15.118465743544627 22.33796856665469 -46.70370180160586 0 0 0
295 0 8 -1.05 23.602109275098478 18.119993571549184 -50.96717445835851 0 0 0
349 0 7 1.575 19.890707388987114 24.602784791941634 -51.16549984415542 0 0 0
298 0 6 1.05 23.688481362869094 20.24146547258495 -51.10020144265088 0 0 0
297 0 6 1.05 23.638897258297586 18.21551170616536 -48.90849869398786 0 0 0
292 0 7 1.575 21.534075618456868 20.382513142772332 -48.995029474359484 0 0 0
342 0 6 1.05 17.58785776765151 24.648972470211305 -53.426619571236024 0 0 0
343 0 7 1.575 17.10552286741237 24.586039928137186 -49.29551113073555 0 0 0
348 0 6 1.05 18.95484930484264 22.059414291038404 -50.13885063620267 0 0 0
291 0 7 1.575 21.634899481359113 18.122772391997817 -51.33314914803646 0 0 0
356 0 7 1.575 22.37594010120731 23.3922585783947 -50.14276317484206 0 0 0
285 0 7 1.575 18.509639362953077 19.29152479368871 -50.222147143912494 0 0 0
357 0 8 -1.05 23.857394028324112 24.581591097438217 -53.42080889378582 0 0 0
359 0 8 -1.05 23.762538818715708 22.406620167493198 -51.008789766746446 0 0 0
299 0 8 -1.05 23.878256763443737 20.46017423355099 -53.094310228394434 0 0 0
353 0 8 -1.05 21.803903189882956 24.9940756276297 -51.11445265136757 0 0 0
284 0 8 -1.05 17.656087227581512 18.569332105408094 -53.108737748879186 0 0 0
350 0 8 -1.05 19.558682044064042 24.971227882223218 -53.00222190231113 0 0 0
355 0 8 -1.05 21.588235558583385 22.449875901511525 -53.500004870661016 0 0 0
286 0 8 -1.05 18.834051709433812 20.677006518286113 -51.612224348367604 0 0 0
287 0 6 1.05 19.381000394560544 17.868641454398094 -53.804056108751944 0 0 0
354 0 6 1.05 21.59888620880535 24.472096189654476 -53.48560612331382 0 0 0
283 0 6 1.05 17.535278497067647 20.634736544874556 -53.304721530246745 0 0 0
358 0 6 1.05 23.579090708763967 22.43890444720764 -53.22339854522212 0 0 0
351 0 7 1.575 20.72047805471235 21.244716970285975 -52.278606070859354 0 0 0
290 0 8 -1.05 21.256575730892965 18.172328207910148 -53.20839479402301 0 0 0
288 0 8 -1.05 19.69218420181751 17.984749414893166 -50.832921315409614 0 0 0
282 0 8 -1.05 15.034903297284414 20.37414070332122 -49.19709752351089 0 0 0
341 0 8 -1.05 17.25460996671127 22.691584607742957 -53.595559330579086 0 0 0
300 0 7 1.575 24.798721762071043 17.08865795523288 -52.17542826933058 0 0 0
416 0 7 1.575 7.679424616793635 4.390932675377996 -47.96426854255471 0 0 0
368 0 6 1.05 2.4170970766913817 3.417896109546807 -46.89018594425519 0 0 0
415 0 6 1.05 6.774156996833995 7.539124002278412 -46.775520279224054 0 0 0
361 0 7 1.575 0.24419456009196241 1.3425155053713849 -47.176378616967774 0 0 0
408 0 7 1.575 4.639130138702391 5.367531329579472 -46.81060031992361 0 0 0
371 0 8 -1.05 4.505699320118034 3.3258139686027843 -46.83717969129129 0 0 0
411 0 8 -1.05 4.682779883465846 7.4096973744361385 -46.787492201281644 0 0 0
80 0 8 -1.05 6.717132796302845 7.7016318678527185 -48.79219842253158 0 0 0
72 0 8 -1.05 4.570882943617293 5.369173091872294 -48.76690603540286 0 0 0
365 0 8 -1.05 2.425072410231648 1.2459957985587569 -46.77700863727861 0 0 0
406 0 8 -1.05 2.6028090198432343 5.405535006139092 -46.770163663988264 0 0 0
412 0 8 -1.05 6.637377674677731 5.417882164569246 -46.70522433561991 0 0 0
364 0 8 -1.05 0.33111244028602743 3.2846579384986767 -46.918819598672165 0 0 0
9 0 8 -1.05 2.6968888536000923 3.227970855215885 -48.892529303329255 0 0 0
373 0 8 -1.05 6.596040687667564 1.0273557944411635 -46.61457901634742 0 0 0
404 0 8 -1.05 0.28826220624505755 9.688240968151812 -44.97123536702128 0 0 0
1 0 8 -1.05 0.595489420199952 1.1988483601202353 -49.0635516662043 0 0 0
372 0 7 1.575 4.655777078031931 1.3502522427151862 -46.79670771865517 0 0 0
405 0 7 1.575 1.4991845194114852 6.689201910216502 -45.918387506070715 0 0 0
369 0 7 1.575 2.6188580553632246 1.2300579349094398 -49.0919983583582 0 0 0
663 0 7 1.575 3.648276855533114 4.325598363782101 -43.75709914595051 0 0 0
414 0 6 1.05 6.700074135497386 5.383575083751295 -44.685272877114805 0 0 0
362 0 6 1.05 0.32423980222880605 3.3976539399922414 -44.92716891280373 0 0 0
409 0 7 1.575 4.627846783562043 7.638873901116279 -44.83348293007998 0 0 0
367 0 7 1.575 2.420391311785828 1.2482011534502788 -44.75941523989795 0 0 0
366 0 8 -1.05 2.4037711267498936 3.2250820051803415 -44.680939496822354 0 0 0
410 0 8 -1.05 4.628898961181146 5.6001114391557145 -44.7482898394614 0 0 0
407 0 8 -1.05 2.538611790678883 7.653366451563775 -44.5652772952602 0 0 0
363 0 8 -1.05 0.4962704922725856 1.397294475608991 -44.39573558299311 0 0 0
665 0 8 -1.05 4.528806240611776 7.589364505524195 -42.64287616873781 0 0 0
374 0 8 -1.05 6.8468217932653355 3.198873509444267 -44.45214293989399 0 0 0
667 0 8 -1.05 6.802909100577436 5.3672063793160545 -42.49551138895721 0 0 0
413 0 8 -1.05 6.617717227535519 7.534674371637406 -44.625033249489206 0 0 0
615 0 7 1.575 1.5240500535424988 2.0715645818767503 -41.6566582598324 0 0 0
666 0 7 1.575 5.606357183323133 6.485748243072185 -41.53432116553868 0 0 0
618 0 7 1.575 4.586068332239217 1.213615377598936 -42.64215381731034 0 0 0
655 0 6 1.05 0.46192930644495783 5.374353819202527 -42.83205556971463 0 0 0
625 0 6 1.05 6.713612968705019 3.325170169859458 -42.46303865508994 0 0 0
662 0 7 1.575 2.5932684939488087 7.495828783118843 -42.61538636268064 0 0 0
622 0 8 -1.05 6.555911865874806 1.1041133547757176 -42.58593879555508 0 0 0
658 0 8 -1.05 0.6148831662267875 7.410497615448964 -42.48080665772366 0 0 0
621 0 8 -1.05 4.545010755238623 3.2040445443497356 -42.41377734050095 0 0 0
659 0 8 -1.05 2.5290434904381898 5.453859757567898 -42.60194121107937 0 0 0
616 0 8 -1.05 2.657404618274378 1.061017653322407 -42.74538192708569 0 0 0
370 0 8 -1.05 4.577074042650914 1.1558706193784545 -44.66397546310667 0 0 0
403 0 8 -1.05 0.2434707054668346 5.571915488925427 -44.806141789457975 0 0 0
614 0 8 -1.05 0.23283440170391412 3.428585901934387 -42.15156585980007 0 0 0
626 0 7 1.575 6.807290164125744 1.211040400946559 -44.66405734184064 0 0 0
418 0 8 -1.05 8.871063403468193 7.697453585592162 -46.783214069317374 0 0 0
21 0 8 -1.05 8.791009255576194 1.1403149649184159 -48.927810492212195 0 0 0
382 0 6 1.05 10.87642849838608 3.3036686967360165 -46.80878462011295 0 0 0
375 0 6 1.05 8.738962457881673 1.2819092500606035 -46.92063464489391 0 0 0
379 0 8 -1.05 10.839140427336513 1.2082737025535994 -46.729234809000694 0 0 0
420 0 8 -1.05 11.376306367248151 5.331762074579671 -45.80010993892199 0 0 0
378 0 8 -1.05 8.818309791014286 3.3847624764350224 -46.68259739446197 0 0 0
29 0 8 -1.05 10.927611719328985 3.457074621019518 -48.8983951339705 0 0 0
419 0 7 1.575 9.880707928190777 6.541045560870974 -45.65659814011947 0 0 0
383 0 7 1.575 11.861888410296203 0.11494667842202656 -47.97326634431931 0 0 0
417 0 8 -1.05 8.821956104433584 5.357275880856444 -44.51415356486929 0 0 0