LAMMPS data file via write_data, version 17 Feb 2022, timestep = 422

4311 atoms
10 atom types
36 bonds
6 bond types
54 angles
6 angle types
0 dihedrals
2 dihedral types
9 impropers
2 improper types

0 25.44 xlo xhi
0 25.44 ylo yhi
-64.778423 32.908 zlo zhi

Masses

1 12.011
2 1.008
3 15.9994
4 15.9994
5 1.008
6 55.845
7 55.845
8 15.9994
9 15.9994
10 1.008

Pair Coeffs # lj/cut/coul/long

1 0.0988 3.31521
2 0.0161 2.4473
3 0.1463 3.04812
4 0.093 3.24287
5 0.0047 0.537925
6 9.0298e-07 4.9062
7 9.0298e-07 4.9062
8 0.1554 3.16554
9 0.1554 3.16554
10 0 0

Bond Coeffs # harmonic

1 361.8 1.105
2 652.57 1.218
3 383.13 1.351
4 563.51 0.973
5 554.135 1
6 0 2.08

Angle Coeffs # harmonic

1 51.617 106.55
2 65.93 123.65
3 65.262 109.49
4 115.745 122.1
5 118.817 130.25
6 30 109.47

Dihedral Coeffs # fourier

1 1 2.3 2 180
2 2 2.3 2 180 1.9 1 0

Improper Coeffs # cvff

1 10.5 -1 2
2 10.5 -1 2

Atoms # full

71 0 7 1.575 3.0680685235319185 5.148327505605324 -52.49445650025857 0 0 0
78 0 6 1.05 7.506094802698646 5.868221954465034 -53.98472135716457 0 0 0
3 0 6 1.05 0.015054051504162337 3.4540651068454826 -53.49935899580871 0 0 0
74 0 6 1.05 4.720942205181913 7.610243617090706 -52.998441753758485 0 0 0
7 0 6 1.05 2.378309169477454 1.3544029005250207 -53.783727036942274 0 0 0
6 0 8 -1.05 2.222858048879075 3.449120048765239 -52.85622737659841 0 0 0
75 0 8 -1.05 4.915867173830096 5.460052522961677 -51.97283803425703 0 0 0
70 0 8 -1.05 2.782442721501184 7.026757895261443 -52.8908104385044 0 0 0
4 0 8 -1.05 0.4195088673419841 1.5153293821942406 -52.82380245720298 0 0 0
73 0 8 -1.05 4.2758809870916865 7.7917130359460485 -50.6559034993079 0 0 0
19 0 8 -1.05 7.034918290249328 3.953836386882036 -53.417742192190154 0 0 0
79 0 8 -1.05 6.816252857754402 4.927258285272921 -50.15536070594602 0 0 0
77 0 8 -1.05 6.702687107849182 7.442974498513643 -53.09773456773495 0 0 0
5 0 7 1.575 1.3762199784308564 2.5153855702380654 -51.366525737106 0 0 0
76 0 7 1.575 5.534640343291373 6.404024926679248 -50.15155912731961 0 0 0
11 0 6 1.05 4.675811260789639 1.2257992708821488 -51.662117965290115 0 0 0
68 0 6 1.05 2.4003422750327963 5.457409053203756 -48.929398591594556 0 0 0
63 0 6 1.05 0.019182119408331103 7.752037368639295 -49.0877880403017 0 0 0
62 0 7 1.575 0.12881466585402138 5.64836218361721 -51.28152784527736 0 0 0
12 0 7 1.575 4.391177301279571 3.363634240210648 -48.97579203028801 0 0 0
17 0 6 1.05 6.721643349761623 1.3410796283061817 -49.511592611394995 0 0 0
18 0 7 1.575 6.159332576567368 3.856559085573336 -51.72281650376121 0 0 0
69 0 7 1.575 2.3002950132888973 7.677397500630421 -51.07540204249983 0 0 0
15 0 8 -1.05 6.702745438410818 1.3503240401347831 -51.47543728400986 0 0 0
64 0 8 -1.05 0.09490839233342946 7.759402456824266 -46.797398189788005 0 0 0
65 0 8 -1.05 0.22345269162703416 7.666693199080207 -51.17577922978776 0 0 0
16 0 8 -1.05 6.283345497480117 2.952778183377221 -48.2946008424851 0 0 0
14 0 8 -1.05 4.646079829247345 3.0317504361428003 -50.821082260761635 0 0 0
67 0 8 -1.05 2.0610313354756267 7.522380865940567 -48.94406419440935 0 0 0
13 0 8 -1.05 4.272558901894773 1.372678379804665 -48.44169350798595 0 0 0
66 0 8 -1.05 2.017193317117034 5.5572203082911615 -50.86782498126351 0 0 0
8 0 8 -1.05 2.3642098988560436 0.9920629525890506 -50.773308074204685 0 0 0
10 0 8 -1.05 4.359158779749242 1.1208092606117566 -53.60846763279818 0 0 0
61 0 8 -1.05 25.425232564370063 5.438396682606806 -53.17297119174913 -1 0 0
2 0 8 -1.05 25.30422796989269 3.6761878467928497 -51.124444150437 -1 0 0
20 0 7 1.575 7.773161680793761 0.19369739010321443 -52.63591916561977 0 0 0
81 0 8 -1.05 9.247465509152317 5.338616778195765 -53.22198302828732 0 0 0
22 0 8 -1.05 8.822609708756923 3.442002447188619 -51.27474690320136 0 0 0
91 0 7 1.575 11.77816533902225 4.629583177486053 -52.35295295831423 0 0 0
23 0 7 1.575 8.940606310450104 3.398912768834275 -53.245782423168 0 0 0
27 0 7 1.575 10.981540851495293 1.2664054118889234 -53.328699298075165 0 0 0
26 0 8 -1.05 10.945383345510537 3.1947823692751784 -53.31776286627213 0 0 0
90 0 8 -1.05 11.070597533818479 7.878004936285075 -53.176535167701616 0 0 0
24 0 8 -1.05 9.002052088852981 1.4268556643978432 -53.45397584320529 0 0 0
25 0 7 1.575 9.851306645469158 2.3083833518255497 -50.17696947512361 0 0 0
88 0 7 1.575 10.894901094881138 5.5268843994823795 -48.94105496451683 0 0 0
83 0 7 1.575 8.719418663626724 7.613447178155016 -48.94613996159138 0 0 0
82 0 6 1.05 8.853980421117551 5.529731314055512 -51.23098275984144 0 0 0
89 0 6 1.05 10.83370699829303 7.6441425930200335 -51.1794556693585 0 0 0
84 0 8 -1.05 8.9515068686477 5.656252473668063 -48.67754076499535 0 0 0
85 0 8 -1.05 8.72149258193117 7.612737447163138 -50.90084038277459 0 0 0
87 0 8 -1.05 10.784323285436525 7.550358298191062 -48.787330433350135 0 0 0
86 0 8 -1.05 10.892510216895662 5.5921835423057775 -50.889121241649384 0 0 0
28 0 8 -1.05 10.910154209998964 1.1697474025770227 -51.295663407443485 0 0 0
98 0 7 1.575 15.082625280228626 5.5211447706392045 -53.192826363742306 0 0 0
94 0 7 1.575 13.026574293941101 7.7101174548224085 -53.110259569689916 0 0 0
95 0 8 -1.05 13.131717085291925 5.704590234450062 -53.191250346365614 0 0 0
93 0 8 -1.05 12.968150031962633 7.75082408509785 -51.092205756897705 0 0 0
39 0 8 -1.05 15.228925313190146 3.394993453423845 -53.24424282437931 0 0 0
99 0 8 -1.05 15.17164879516226 5.594158352734412 -51.14319783752873 0 0 0
97 0 8 -1.05 15.015858281379526 7.544105464587148 -53.19472888059124 0 0 0
96 0 7 1.575 14.030058611187078 6.625405403092966 -50.016005496674396 0 0 0
31 0 6 1.05 12.915672561153126 1.3397138071749128 -51.271562493939804 0 0 0
32 0 7 1.575 12.926845076454356 3.421219519901892 -49.11690638176931 0 0 0
37 0 7 1.575 15.052674461888907 1.196231833590585 -49.3243892070795 0 0 0
38 0 6 1.05 14.986332770216386 3.5080400979409636 -51.181164063590444 0 0 0
35 0 8 -1.05 14.952138823348298 1.4187051588084971 -51.25142735657781 0 0 0
36 0 8 -1.05 14.915825734851829 3.277153448538051 -49.03191999412237 0 0 0
34 0 8 -1.05 12.898681833835651 3.47916959773733 -51.08419512889441 0 0 0
33 0 8 -1.05 13.015920362709418 1.3731901106451578 -49.11641019990659 0 0 0
30 0 8 -1.05 13.165068841886926 1.1012225082245715 -53.345647470125115 0 0 0
40 0 7 1.575 15.136041311911313 1.3925562886334144 -53.196915041638796 0 0 0
60 0 7 1.575 24.59081897609261 0.10771498485906082 -52.36134128013786 0 0 0
50 0 8 -1.05 21.057103150096957 0.6930130291357041 -52.6803506355283 0 0 0
48 0 8 -1.05 19.427012548601276 0.9475946761995266 -50.30362585769692 0 0 0
106 0 8 -1.05 19.315112143847184 5.681607938529791 -51.132706947292796 0 0 0
53 0 8 -1.05 21.679218347139937 1.3230939147902214 -48.76019733300579 0 0 0
107 0 8 -1.05 19.249136703837568 7.634217293694943 -48.5427366349682 0 0 0
54 0 8 -1.05 21.449772846925672 2.9488678907442876 -50.9126921625276 0 0 0
56 0 8 -1.05 23.478576032544186 3.3017658886498213 -49.10689949750021 0 0 0
105 0 8 -1.05 17.37930409759397 7.674861090190651 -51.18439844819944 0 0 0
104 0 8 -1.05 17.272964718654805 5.727363169576127 -49.14576011357002 0 0 0
55 0 8 -1.05 23.483791886352478 1.105326526939001 -51.04810771524255 0 0 0
109 0 7 1.575 19.380143610772524 7.6775944080476055 -51.4005689081906 0 0 0
58 0 7 1.575 23.39803911370389 3.0990672239779533 -51.257160818754016 0 0 0
57 0 6 1.05 23.694786270170596 1.2139363985498335 -49.01021958444267 0 0 0
52 0 6 1.05 21.4400103693628 3.3451885626567064 -48.92456853899234 0 0 0
102 0 7 1.575 17.207090438086126 5.654507683025548 -51.19586575172814 0 0 0
103 0 6 1.05 17.20748853759596 7.789807942173312 -49.11945161064374 0 0 0
108 0 6 1.05 19.32857032426367 5.628395688605573 -49.06094606728802 0 0 0
51 0 7 1.575 21.395864235981513 0.9280765536670124 -50.82757684245331 0 0 0
116 0 7 1.575 22.655187197048523 6.49409094696932 -50.09076917393912 0 0 0
45 0 7 1.575 18.519371411668725 2.628322575954558 -50.44003498418648 0 0 0
117 0 8 -1.05 23.33026821647833 7.569135547377489 -53.111788192305404 0 0 0
119 0 8 -1.05 24.61699583276732 5.8293519877304885 -49.504024909507336 0 0 0
59 0 8 -1.05 23.4594821475703 3.4860343129363422 -53.17747365600568 0 0 0
113 0 8 -1.05 21.18692622875762 7.759966737869983 -50.541043591276754 0 0 0
44 0 8 -1.05 17.132196895006185 1.207580047581142 -53.334889921883686 0 0 0
110 0 8 -1.05 19.73420475675519 8.00604748363674 -53.25753547456269 0 0 0
115 0 8 -1.05 22.322868034641104 5.339327000975366 -51.59632730963776 0 0 0
46 0 8 -1.05 19.18393837218757 3.044900439028854 -52.358143942503574 0 0 0
47 0 6 1.05 19.22600919711722 1.0618906600491118 -53.28832312672106 0 0 0
114 0 6 1.05 21.641083196700816 8.26317381262504 -53.85867066653794 0 0 0
43 0 6 1.05 17.287050758941707 3.3756752803244345 -53.082810742846554 0 0 0
118 0 6 1.05 23.439314780856527 5.5510055674469285 -53.35206830702103 0 0 0
111 0 7 1.575 20.580234163119435 4.368234925748885 -51.90628855771125 0 0 0
42 0 8 -1.05 17.029156432331753 3.6810517128073874 -50.94745646274748 0 0 0
101 0 8 -1.05 17.039056108499093 5.393924740226777 -53.12366194874448 0 0 0
140 0 7 1.575 7.70039939671175 8.762256821253692 -52.14566124810862 0 0 0
128 0 8 -1.05 2.3468899158822585 9.65410922060146 -50.87467650838678 0 0 0
130 0 8 -1.05 4.164138412199964 9.520142028998317 -52.91362214811076 0 0 0
123 0 7 1.575 0.16013945910585722 12.10971454578938 -53.03626994545812 0 0 0
127 0 6 1.05 2.282673603557141 10.043369085497384 -53.2664783003356 0 0 0
126 0 8 -1.05 2.097753656702919 12.038970742434502 -53.057853444222104 0 0 0
124 0 8 -1.05 0.235130559974139 10.096182992476917 -53.15382725607825 0 0 0
139 0 8 -1.05 6.868797038087424 12.04192243349108 -53.02010570327264 0 0 0
125 0 7 1.575 1.245866178476669 10.915827584741745 -49.96504827547094 0 0 0
131 0 7 1.575 4.450000700919739 9.784340244356468 -51.02634512234134 0 0 0
132 0 7 1.575 4.474433665062878 11.908265459051169 -48.884239068016065 0 0 0
137 0 6 1.05 6.580208813101472 9.690786020739722 -48.93763362481694 0 0 0
138 0 6 1.05 6.610606041343004 11.841647879496062 -51.02405721528399 0 0 0
135 0 8 -1.05 6.458923497542208 9.73385491563111 -50.97156782755927 0 0 0
136 0 8 -1.05 6.464977117461248 11.808923903020748 -48.78509885285922 0 0 0
134 0 8 -1.05 4.406826556022325 11.796633801394067 -50.85544753339677 0 0 0
133 0 8 -1.05 4.468092471710813 9.908866877736097 -48.85529425139654 0 0 0
122 0 8 -1.05 0.08572915859587223 12.022110527570273 -50.9963597269584 0 0 0
191 0 7 1.575 3.450043401217662 12.979747831457775 -52.12252820187935 0 0 0
198 0 7 1.575 6.689247690901283 13.994531056225703 -52.978187180619855 0 0 0
194 0 6 1.05 4.590332045301839 16.04205943877795 -53.23004452971134 0 0 0
195 0 8 -1.05 4.725396732030995 14.038279905322522 -53.02535139202977 0 0 0
190 0 8 -1.05 2.132349198580088 16.239797743670128 -52.95308875737218 0 0 0
193 0 8 -1.05 4.383426948896382 16.183000086475676 -50.96118455865678 0 0 0
199 0 8 -1.05 6.7423652366426206 13.967394734162689 -50.92849050892748 0 0 0
197 0 8 -1.05 6.634201529295453 15.939169925547716 -53.04931972019147 0 0 0
196 0 7 1.575 5.525393252508394 15.048228036939479 -49.957495108355516 0 0 0
188 0 6 1.05 2.3730893766942467 14.010441667516247 -48.860445247180486 0 0 0
183 0 7 1.575 0.2814265149685937 16.161340646164845 -48.896815477160146 0 0 0
182 0 6 1.05 0.21352899571530878 14.044284726542088 -50.93646905814838 0 0 0
189 0 7 1.575 2.4305086011941763 16.093465323858243 -51.00171339052611 0 0 0
184 0 8 -1.05 0.27001323861576393 14.179777983668725 -48.777333948782676 0 0 0
185 0 8 -1.05 0.40728144162496377 16.086845347426284 -50.85940905867778 0 0 0
187 0 8 -1.05 2.2937792412972873 16.09969461734972 -48.86067130900581 0 0 0
186 0 8 -1.05 2.39045956922963 14.090351842524518 -50.89245274472657 0 0 0
181 0 8 -1.05 25.417394036073684 14.238992348717519 -52.994544858754445 -1 0 0
142 0 8 -1.05 8.743346819432917 11.944226868495367 -50.910602257923784 0 0 0
148 0 8 -1.05 10.965640920728402 9.738120348179377 -50.999873575808266 0 0 0
143 0 7 1.575 8.813052865194534 11.91477669372622 -52.9428534432366 0 0 0
147 0 7 1.575 10.92605727902069 9.827316201182049 -53.02958468352981 0 0 0
146 0 8 -1.05 10.786607414022992 11.810291850063146 -52.9838362126684 0 0 0
144 0 8 -1.05 8.935651938468007 9.937645395761423 -53.00677338159828 0 0 0
145 0 7 1.575 9.855065757495272 10.795518253054842 -49.88984600026488 0 0 0
201 0 8 -1.05 8.694434872057313 13.887735086291205 -53.000596411992355 0 0 0
211 0 7 1.575 12.02153252979992 12.977999091803381 -52.13116717903754 0 0 0
210 0 8 -1.05 12.1734127593897 17.399744449214804 -53.4478660219356 0 0 0
208 0 7 1.575 10.91551502727048 14.038684165804899 -48.85264776739402 0 0 0
203 0 6 1.05 8.739815600119853 16.165218430530516 -48.902720870661696 0 0 0
202 0 6 1.05 8.827706394934376 14.061602349472702 -51.000208587183955 0 0 0
209 0 7 1.575 11.008021112298831 16.283599224964195 -50.83193804866477 0 0 0
204 0 8 -1.05 8.935493210286102 14.112630182813339 -48.83987174418618 0 0 0
205 0 8 -1.05 9.055046097350093 16.40414689580505 -50.961524753025415 0 0 0
207 0 8 -1.05 10.976054247497647 16.10233526128212 -48.826878598860844 0 0 0
206 0 8 -1.05 10.990326834499994 14.236297756220521 -50.869977383443526 0 0 0
160 0 7 1.575 16.151220558110314 8.83981708736358 -52.34505301142724 0 0 0
150 0 8 -1.05 12.893374784425168 9.683605458560665 -53.11384247923399 0 0 0
159 0 8 -1.05 15.389424654177427 12.053344491425449 -52.966074189431794 0 0 0
151 0 6 1.05 13.071287065935207 9.836208318927012 -51.100944623866845 0 0 0
152 0 7 1.575 13.003473251472819 11.917780868500511 -48.86611976323435 0 0 0
157 0 6 1.05 15.11163943384035 9.807481144440496 -48.99632408414099 0 0 0
158 0 7 1.575 15.142025809325624 11.947293752644432 -51.045682101749 0 0 0
155 0 8 -1.05 15.19462726418936 9.921596092740248 -51.0095466228318 0 0 0
156 0 8 -1.05 15.011132604541366 11.90084418390549 -48.88602587955023 0 0 0
154 0 8 -1.05 13.108282095513907 11.963015648391426 -50.84780929878294 0 0 0
153 0 8 -1.05 13.046305756562962 9.933190042467325 -48.783553404624136 0 0 0
218 0 6 1.05 15.2901601337133 14.070803851973883 -53.1200343220687 0 0 0
214 0 7 1.575 13.398850999652977 16.01956641681267 -53.073927600736724 0 0 0
215 0 8 -1.05 13.172844819425041 14.158706431928373 -53.09165565107945 0 0 0
213 0 8 -1.05 12.963375308262714 16.186181488404824 -51.12089283341288 0 0 0
219 0 8 -1.05 17.23716380001605 14.262418557932687 -48.70773902709849 0 0 0
217 0 8 -1.05 15.203319133542868 13.964254269511924 -50.92337869590168 0 0 0
216 0 7 1.575 14.056483190232154 15.103100396834057 -49.93645470013463 0 0 0
173 0 8 -1.05 21.520450450941794 10.086820831149563 -48.87967409492545 0 0 0
174 0 8 -1.05 21.35870129714958 12.10819197803925 -50.837132745024626 0 0 0
176 0 8 -1.05 23.415114201541364 11.91507260941763 -48.74716280285111 0 0 0
175 0 8 -1.05 23.52898543197578 9.847937691512099 -50.899731957851714 0 0 0
178 0 6 1.05 23.428419034928243 12.0034093992611 -51.1570925887698 0 0 0
177 0 7 1.575 23.525614649892898 9.947715813370776 -48.945178534716874 0 0 0
172 0 7 1.575 21.3855341373172 12.082612185919615 -48.87527716228706 0 0 0
171 0 6 1.05 21.463136084279117 10.016634430241036 -51.13108751474554 0 0 0
165 0 7 1.575 18.33579983780307 10.841038811778288 -49.9061346814432 0 0 0
179 0 8 -1.05 23.661006138614272 12.336977012832408 -53.13828463214283 0 0 0
164 0 8 -1.05 17.45843595291582 10.008706186052535 -53.14252756442204 0 0 0
166 0 8 -1.05 19.264929614803897 11.92792494605738 -52.986449300882455 0 0 0
167 0 7 1.575 19.420233752259097 9.984792562620525 -53.096355236810346 0 0 0
163 0 7 1.575 17.31494455518528 12.000229714010976 -52.98203903437629 0 0 0
170 0 8 -1.05 21.36033262939552 10.050277087659731 -53.117668650667746 0 0 0
168 0 8 -1.05 19.36732208648727 9.690992954949193 -51.06315434544777 0 0 0
162 0 8 -1.05 17.206005071206565 12.005675103311999 -50.921150762554895 0 0 0
180 0 7 1.575 24.508548915240937 8.86053516569134 -52.30150264512114 0 0 0
226 0 8 -1.05 19.391160968066348 14.440532869569486 -50.896086919333264 0 0 0
227 0 8 -1.05 19.17958263674701 16.219040357161845 -48.74479352852398 0 0 0
225 0 8 -1.05 17.224098860465755 16.37447540526694 -50.62841400258957 0 0 0
224 0 8 -1.05 19.324091182461178 13.889831218437603 -46.55675408590645 0 0 0
229 0 7 1.575 19.31845241106047 16.480670608105395 -50.79499261697637 0 0 0
222 0 6 1.05 17.28263244899974 14.225715744303338 -51.009516986374294 0 0 0
223 0 7 1.575 17.1250162884319 16.248120338640266 -48.68632042530341 0 0 0
228 0 6 1.05 19.292837407617586 14.125015170614548 -48.85889129522186 0 0 0
236 0 7 1.575 22.409958848811858 15.267038787273158 -49.8936294399399 0 0 0
237 0 8 -1.05 23.586380268149576 16.195059844881538 -53.11553663340398 0 0 0
239 0 8 -1.05 23.466446437831596 14.134602975378025 -50.999212286918336 0 0 0
233 0 8 -1.05 21.377473119625137 16.51651309960459 -50.95222353337711 0 0 0
230 0 8 -1.05 18.822737998606033 16.91921106990808 -52.676182451170064 0 0 0
235 0 8 -1.05 21.384229631994103 14.484010948029296 -53.15004567569121 0 0 0
234 0 6 1.05 20.391988104122113 16.181975297328947 -53.6892105638648 0 0 0
238 0 7 1.575 23.352279473634134 14.247293726054972 -53.004503520239616 0 0 0
231 0 7 1.575 20.35386865093808 13.225581780216027 -52.11286868602518 0 0 0
221 0 8 -1.05 17.30699920137453 13.9429760816844 -53.01597551735309 0 0 0
260 0 7 1.575 7.735899700815446 17.224288597612244 -52.23001910743828 0 0 0
248 0 8 -1.05 2.426607753489873 18.145830163736566 -51.07246123190759 0 0 0
250 0 8 -1.05 4.2043700667323725 17.991036159565102 -53.298169610995494 0 0 0
311 0 7 1.575 3.3942541352847253 21.36925491697386 -52.485290020801095 0 0 0
318 0 6 1.05 6.590625282771184 22.434223735287752 -53.43838593395736 0 0 0
243 0 7 1.575 0.07967209264556052 20.133260847937354 -53.17977774916765 0 0 0
314 0 7 1.575 4.4850237772262505 24.582324798441295 -53.502306278757935 0 0 0
247 0 7 1.575 2.3212914206935156 18.21335485330268 -53.14363949027576 0 0 0
246 0 8 -1.05 2.1059722455631347 20.14677102505498 -53.19596843951006 0 0 0
315 0 8 -1.05 4.492854972603424 22.628098472025666 -53.38877689492038 0 0 0
310 0 8 -1.05 2.4784279987014717 24.797260056285364 -53.40642735222287 0 0 0
244 0 8 -1.05 0.3526454895741729 18.17960207883373 -53.37911639681483 0 0 0
313 0 8 -1.05 4.329078794142963 24.655081662781726 -51.37720360920531 0 0 0
259 0 8 -1.05 6.7983403382253655 20.359467914283314 -53.211001117795995 0 0 0
319 0 8 -1.05 6.640697741364539 22.30554178587425 -51.15875996791605 0 0 0
317 0 8 -1.05 6.434815973319816 24.506923323420562 -53.381763914584035 0 0 0
245 0 7 1.575 1.3475278574441543 19.290792596900467 -49.993782339360756 0 0 0
316 0 7 1.575 5.514138474219888 23.583662615237664 -50.332333020136 0 0 0
251 0 6 1.05 4.554893737023676 18.22377078646857 -51.34215328309512 0 0 0
308 0 6 1.05 2.437177922272245 22.491926466570433 -49.1887923684714 0 0 0
303 0 6 1.05 0.21326232268471276 24.56626475938833 -49.197684142014495 0 0 0
302 0 7 1.575 0.2857048007341987 22.406368192348992 -51.25369225060484 0 0 0
252 0 6 1.05 4.436662752856899 20.325368840767567 -49.24045112542541 0 0 0
257 0 7 1.575 6.5652887466111824 18.21134930294249 -48.990861621758654 0 0 0
258 0 7 1.575 6.5328956821366155 20.334756723657826 -51.3003210450911 0 0 0
309 0 7 1.575 2.329681950974539 24.5532327377268 -51.52252698756387 0 0 0
255 0 8 -1.05 6.643591583669079 18.296482256526225 -50.977163493868204 0 0 0
304 0 8 -1.05 0.39080993884043475 22.51632214557278 -49.14803268369232 0 0 0
305 0 8 -1.05 0.3475998608556457 24.448404789269524 -51.22949340871922 0 0 0
256 0 8 -1.05 6.537465832276548 20.226274847147135 -49.06303441451287 0 0 0
254 0 8 -1.05 4.5264335650530025 20.32467095297899 -51.23694650472421 0 0 0
307 0 8 -1.05 2.2122181711209707 24.56419285722489 -48.55805146234065 0 0 0
253 0 8 -1.05 4.604500206661304 18.315796125407264 -48.828211903034436 0 0 0
306 0 8 -1.05 2.325423311773834 22.563567672632217 -51.23032403359516 0 0 0
301 0 8 -1.05 0.03878846705835336 22.098112429096368 -53.15869646085868 0 0 0
242 0 8 -1.05 0.2474683989186085 20.39172293107998 -51.10381320219611 0 0 0
326 0 8 -1.05 10.86437007702041 22.368532640919597 -51.15445202799137 0 0 0
327 0 8 -1.05 10.688943216631817 24.427562893660273 -49.20391191411368 0 0 0
325 0 8 -1.05 8.70444854868152 24.586293219178497 -51.22997228666378 0 0 0
324 0 8 -1.05 8.769357867682848 22.571413693113232 -49.105290990546536 0 0 0
329 0 6 1.05 10.78808741183824 24.498167128939134 -51.447553591222 0 0 0
322 0 6 1.05 8.690542596034147 22.499152946871728 -51.39339937469196 0 0 0
323 0 7 1.575 8.688853735306452 24.59290359453182 -49.28085731676485 0 0 0
328 0 7 1.575 10.76585205612414 22.442508039913974 -49.1717651611468 0 0 0
265 0 7 1.575 9.631636574860913 19.186121996504284 -50.09681927150768 0 0 0
264 0 8 -1.05 8.89627300209763 18.340670557834347 -53.24810617380978 0 0 0
330 0 8 -1.05 11.199913582648753 24.785898764409332 -53.42654331586587 0 0 0
266 0 8 -1.05 10.738264667451432 20.27869075080282 -53.489318082165234 0 0 0
267 0 6 1.05 10.65378711777342 18.39862365498272 -54.17649643089563 0 0 0
263 0 7 1.575 8.7508376303823 20.322536457228576 -53.25600262073976 0 0 0
321 0 8 -1.05 8.660585514572746 22.2487995730217 -53.36418264712133 0 0 0
262 0 8 -1.05 8.618897270958616 20.33697157958843 -51.20320153345649 0 0 0
268 0 8 -1.05 11.263405448664335 18.302066287867305 -50.59634539003407 0 0 0
331 0 7 1.575 11.859262046368464 21.57333044085978 -52.66241537474038 0 0 0
280 0 7 1.575 16.583375289383067 17.313659764786987 -52.203824505920686 0 0 0
273 0 8 -1.05 13.137561732346702 18.7373662164135 -48.484366795911704 0 0 0
274 0 8 -1.05 13.037041156292213 20.36239343909266 -51.48358477827984 0 0 0
276 0 8 -1.05 14.76033130231814 21.00489499197374 -47.06786842724264 0 0 0
275 0 8 -1.05 14.880357840290573 18.349189726588207 -51.25608992080499 0 0 0
278 0 7 1.575 15.100436092090709 20.312575281218457 -51.58745820821029 0 0 0
277 0 6 1.05 15.06114308718575 18.24761045614698 -49.21293819213801 0 0 0
272 0 7 1.575 12.476573070105966 20.12579028881735 -49.66089570523911 0 0 0
271 0 6 1.05 12.912067652140799 18.33432415224395 -51.839583696534135 0 0 0
336 0 7 1.575 14.00681875867152 23.35128745445564 -50.24807439217654 0 0 0
337 0 8 -1.05 15.137123250493483 24.597308431887388 -53.52751973267647 0 0 0
339 0 8 -1.05 15.072868550280575 22.311605402967473 -51.435536693725496 0 0 0
279 0 8 -1.05 15.338992947167798 20.583563984618483 -53.49369472655358 0 0 0
333 0 8 -1.05 12.94585659344697 24.550365125540534 -51.29695669069352 0 0 0
335 0 8 -1.05 13.237140454368367 22.64771911774407 -53.48088073277223 0 0 0
334 0 7 1.575 13.118955097097272 24.57364342939015 -53.28476471682155 0 0 0
270 0 8 -1.05 15.281282688685645 16.216951322371248 -53.11432768988805 0 0 0
338 0 7 1.575 15.221499768910594 22.548947395563825 -53.381276954115165 0 0 0
346 0 8 -1.05 19.117129510173747 21.200841173814172 -50.94125767548302 0 0 0
293 0 8 -1.05 21.29308536800125 18.826316600810415 -48.40531644029948 0 0 0
347 0 8 -1.05 18.74558186821699 24.36041358189112 -48.54027447311872 0 0 0
294 0 8 -1.05 21.587266293892682 20.069930600303206 -51.289667712602885 0 0 0
296 0 8 -1.05 23.75898759042501 20.196165356318986 -48.530923511757656 0 0 0
345 0 8 -1.05 18.401031244186374 23.82507786706904 -51.404143534675626 0 0 0
344 0 8 -1.05 16.69292457418442 22.745857878909273 -47.24570832981539 0 0 0
295 0 8 -1.05 23.765942955388553 18.312939991319016 -51.12334010038951 0 0 0
349 0 7 1.575 19.137521591035092 22.590460793815673 -52.927856025336986 0 0 0
298 0 6 1.05 23.59405374431972 20.306709150345572 -51.18027983527825 0 0 0
297 0 6 1.05 23.856217353706427 18.26321169398706 -49.220482942205805 0 0 0
292 0 7 1.575 20.447993650161667 20.10718646755819 -49.75701601834516 0 0 0
342 0 6 1.05 17.26204337562309 24.580691101054608 -53.607637761704396 0 0 0
343 0 7 1.575 17.888316573462323 25.14914104483709 -50.15089138831767 0 0 0
348 0 6 1.05 19.627783008177328 22.94015254511942 -50.036082158201665 0 0 0
291 0 7 1.575 22.496080825662528 17.53628308828357 -52.26482331292631 0 0 0
356 0 7 1.575 22.566925075779366 23.217468793894543 -49.85913234008867 0 0 0
285 0 7 1.575 17.853770191117125 19.788861078064613 -50.27892354640832 0 0 0
357 0 8 -1.05 23.367978307207576 24.4462618139857 -53.30079397560885 0 0 0
359 0 8 -1.05 23.719633706168754 22.347017367005805 -51.052454072410654 0 0 0
299 0 8 -1.05 23.413442633587998 20.37992647006782 -53.29742519107644 0 0 0
353 0 8 -1.05 21.122292716404676 24.437023248348723 -49.99835190702402 0 0 0
284 0 8 -1.05 17.29037045194787 19.198489106651703 -52.09157546996304 0 0 0
350 0 8 -1.05 19.27332348887178 24.39299895074751 -53.912102819460564 0 0 0
355 0 8 -1.05 21.229059837351635 22.420282287014803 -53.082544129955245 0 0 0
286 0 8 -1.05 19.387659239246723 20.588274070104703 -53.61450484327065 0 0 0
287 0 6 1.05 19.353847599484588 18.85839917856401 -52.50981382459386 0 0 0
354 0 6 1.05 21.36406012495362 24.42190995899841 -53.632602435854274 0 0 0
283 0 6 1.05 17.345087032074193 20.47512315419511 -53.76424464723234 0 0 0
358 0 6 1.05 23.48546480633445 22.466354419972223 -53.179457600487254 0 0 0
351 0 7 1.575 21.403578211928096 20.407733974973794 -53.221212044155216 0 0 0
290 0 8 -1.05 21.15455448463343 18.33031135677013 -53.38452321447814 0 0 0
288 0 8 -1.05 19.33847688801897 18.520458450838248 -50.399455100473574 0 0 0
282 0 8 -1.05 16.025164208120273 20.35074550278093 -49.78427323582262 0 0 0
341 0 8 -1.05 17.207266715459454 22.524993542943143 -53.614763447294344 0 0 0
300 0 7 1.575 0.11920721818182356 16.265072014545165 -52.87846142647486 1 0 0
416 0 7 1.575 7.488222834628834 4.486593857951981 -48.21919857783459 0 0 0
368 0 6 1.05 2.165796916264816 3.4515916743708837 -46.83582196067024 0 0 0
415 0 6 1.05 6.595527194831231 7.569183537525207 -46.87262785670019 0 0 0
361 0 7 1.575 0.12854685929275603 1.2986748630428468 -46.80310836961569 0 0 0
408 0 7 1.575 4.439770802250483 5.517682293789533 -46.83094925652155 0 0 0
371 0 8 -1.05 4.193201353533784 3.5718755208081125 -46.71478438986922 0 0 0
411 0 8 -1.05 4.382078633099703 7.54197882798925 -46.709221841868846 0 0 0
80 0 8 -1.05 6.686813686436555 7.5601270110560455 -48.90248450663489 0 0 0
72 0 8 -1.05 4.4208624734814 5.3574405923764665 -48.809104907180895 0 0 0
365 0 8 -1.05 2.1019068692550156 1.2968759020591263 -46.68288339853952 0 0 0
406 0 8 -1.05 2.347627891169675 5.517023481601467 -46.8429161444615 0 0 0
412 0 8 -1.05 6.447385753831124 5.489889523822319 -46.79763720939963 0 0 0
364 0 8 -1.05 0.07674756047836435 3.34854995206857 -46.81695362222249 0 0 0
9 0 8 -1.05 2.3957722154567804 3.27568390156739 -48.87683930783117 0 0 0
373 0 8 -1.05 6.685590141555978 0.874777150741206 -46.43248285486177 0 0 0
404 0 8 -1.05 0.2607617702647132 9.741762051587617 -44.69059305424357 0 0 0
1 0 8 -1.05 0.32170105688348494 1.1387707568024201 -48.74293755005355 0 0 0
372 0 7 1.575 5.210406986912409 1.9819374573229451 -46.85763704456816 0 0 0
405 0 7 1.575 1.2603634959080805 6.647037103394775 -45.7827313028026 0 0 0
369 0 7 1.575 2.3729982238692755 1.10789164833443 -48.80787710618381 0 0 0
663 0 7 1.575 3.437077458088993 4.413157187559775 -43.67581859204662 0 0 0
414 0 6 1.05 6.6102603065181675 5.35417606683677 -44.78345946875278 0 0 0
362 0 6 1.05 0.17268828697261765 3.390921614444365 -44.77387352631047 0 0 0
409 0 7 1.575 4.500286311760171 7.625092119579814 -44.73586258482968 0 0 0
367 0 7 1.575 2.324016532318098 1.3103372038493373 -44.733805810134406 0 0 0
366 0 8 -1.05 2.2100619302920097 3.281586242101168 -44.591112679537915 0 0 0
410 0 8 -1.05 4.4791964908479995 5.623377755482637 -44.712664865137334 0 0 0
407 0 8 -1.05 2.42187064756774 7.598123522185668 -44.52305454275514 0 0 0
363 0 8 -1.05 0.27551743842345944 1.2990422984402457 -44.6730564627569 0 0 0
665 0 8 -1.05 4.369324293315999 7.583251553953929 -42.49423055228958 0 0 0
374 0 8 -1.05 6.847517513637407 3.1730744239991444 -44.550455612842796 0 0 0
667 0 8 -1.05 6.770153451404543 5.393445026474145 -42.50164355112367 0 0 0
413 0 8 -1.05 6.467761711604399 7.502469960097295 -44.583445161543715 0 0 0
615 0 7 1.575 1.3427646286359038 2.2682623430453766 -41.475293921048724 0 0 0
666 0 7 1.575 5.618147078793296 6.524760478759846 -41.498171455355916 0 0 0
618 0 7 1.575 4.415601382673586 1.3499463774705114 -42.67987491704828 0 0 0
655 0 6 1.05 0.2934566087114448 5.419869919390527 -42.71203552154365 0 0 0
625 0 6 1.05 6.676171541204202 3.3609210178540057 -42.545334634088746 0 0 0
662 0 7 1.575 2.378571012025248 7.5619217314327845 -42.56538091699355 0 0 0
622 0 8 -1.05 6.37233651838824 1.2957697713304137 -42.58253510619499 0 0 0
658 0 8 -1.05 0.2850302747119058 7.538433677897817 -42.39382965447846 0 0 0
621 0 8 -1.05 4.428810694070231 3.308009749416566 -42.363692809125226 0 0 0
659 0 8 -1.05 2.3410331800339073 5.553711309076664 -42.45955370546574 0 0 0
616 0 8 -1.05 2.449316377515755 1.2420829125129138 -42.64765330592335 0 0 0
370 0 8 -1.05 4.413583845726622 1.2342416192862753 -44.62317051626391 0 0 0
403 0 8 -1.05 0.10870041953651866 5.505736727825888 -44.69048466897807 0 0 0
614 0 8 -1.05 0.11167387736545424 3.407975278000073 -42.40822095943108 0 0 0
626 0 7 1.575 6.973550943780311 1.0900388242355357 -44.50031419918924 0 0 0
418 0 8 -1.05 8.693175583724184 7.747426896349394 -46.7610810919988 0 0 0
21 0 8 -1.05 8.738839671774919 1.1488225158685192 -49.06611448144694 0 0 0
382 0 6 1.05 10.818219613005057 3.3621953824824216 -46.97986552031233 0 0 0
375 0 6 1.05 8.719472613355443 1.2864966543667675 -47.04611218974558 0 0 0
379 0 8 -1.05 10.852045526451535 1.2009171976940494 -46.88457289291675 0 0 0
420 0 8 -1.05 11.02401452964019 5.438626484953181 -46.80091668259279 0 0 0
378 0 8 -1.05 8.727824298968121 3.3868510884718774 -46.836659018065575 0 0 0
29 0 8 -1.05 10.923223611593281 3.449570108123915 -49.00040838109968 0 0 0
419 0 7 1.575 9.806714215158923 6.521952648418019 -45.82749603951448 0 0 0
383 0 7 1.575 11.824220379546407 0.16264863311125682 -48.236681119615014 0 0 0
417 0 8 -1.05 8.798585096860144 5.376238201603945 -44.57286800610578 0 0 0