LAMMPS data file via write_data, version 17 Feb 2022, timestep = 453

4311 atoms
10 atom types
36 bonds
6 bond types
54 angles
6 angle types
0 dihedrals
2 dihedral types
9 impropers
2 improper types

0 25.44 xlo xhi
0 25.44 ylo yhi
-64.778423 32.908 zlo zhi

Masses

1 12.011
2 1.008
3 15.9994
4 15.9994
5 1.008
6 55.845
7 55.845
8 15.9994
9 15.9994
10 1.008

Pair Coeffs # lj/cut/coul/long

1 0.0988 3.31521
2 0.0161 2.4473
3 0.1463 3.04812
4 0.093 3.24287
5 0.0047 0.537925
6 9.0298e-07 4.9062
7 9.0298e-07 4.9062
8 0.1554 3.16554
9 0.1554 3.16554
10 0 0

Bond Coeffs # harmonic

1 361.8 1.105
2 652.57 1.218
3 383.13 1.351
4 563.51 0.973
5 554.135 1
6 0 2.08

Angle Coeffs # harmonic

1 51.617 106.55
2 65.93 123.65
3 65.262 109.49
4 115.745 122.1
5 118.817 130.25
6 30 109.47

Dihedral Coeffs # fourier

1 1 2.3 2 180
2 2 2.3 2 180 1.9 1 0

Improper Coeffs # cvff

1 10.5 -1 2
2 10.5 -1 2

Atoms # full

71 0 7 1.575 3.6294247993772397 4.3749133432814356 -52.00787791111117 0 0 0
78 0 6 1.05 6.808532206757384 5.49422412717212 -53.35602357876789 0 0 0
3 0 6 1.05 25.0033772884163 3.0725706744335457 -53.843205108129276 -1 0 0
74 0 6 1.05 4.713084116563378 7.548501700751412 -53.1732919111614 0 0 0
7 0 6 1.05 3.062927162529186 1.4052936531721127 -54.087380590344715 0 0 0
6 0 8 -1.05 2.593870462126177 3.0016858400794963 -52.889893899070145 0 0 0
75 0 8 -1.05 4.9538618949241675 5.723437056639832 -52.04735291475224 0 0 0
70 0 8 -1.05 2.685073993726514 7.46024141844738 -52.94514608619294 0 0 0
4 0 8 -1.05 0.11663968891574054 1.3495126503255093 -52.95836979026653 0 0 0
73 0 8 -1.05 4.378349149143138 7.787479587060893 -50.33663610876101 0 0 0
19 0 8 -1.05 6.8337079341285065 3.507787290557758 -52.94059639623431 0 0 0
79 0 8 -1.05 7.1532503260096325 5.178913203190698 -50.44716338358975 0 0 0
77 0 8 -1.05 6.727493478376049 7.445166733174514 -52.972459919728664 0 0 0
5 0 7 1.575 1.345000806593311 2.1659096148180343 -51.71581300596978 0 0 0
76 0 7 1.575 5.734288012494861 6.426142796705379 -50.275134356194684 0 0 0
11 0 6 1.05 4.7582989030527925 1.2333621009610987 -51.479525523300886 0 0 0
68 0 6 1.05 2.4993969707041144 5.312267065534932 -48.955716852793024 0 0 0
63 0 6 1.05 0.13665534635286855 7.574148731053092 -49.22625323548965 0 0 0
62 0 7 1.575 0.38742570071394417 5.461025360510975 -51.72790218370762 0 0 0
12 0 7 1.575 4.629770072527516 3.314335394836172 -48.878718164165505 0 0 0
17 0 6 1.05 6.658881374917797 1.1126306224473654 -49.06189529233278 0 0 0
18 0 7 1.575 6.806972760771039 3.296220897170555 -51.02468507511166 0 0 0
69 0 7 1.575 2.4375950207040087 7.545558728052448 -51.05640227675986 0 0 0
15 0 8 -1.05 6.758780193046929 1.2685509769969883 -51.04588817865587 0 0 0
64 0 8 -1.05 0.07478856653441229 6.376157122455525 -47.51365940878894 0 0 0
65 0 8 -1.05 0.357458630569675 7.43801983011851 -51.22959774572599 0 0 0
16 0 8 -1.05 6.601726808050587 3.115581429148076 -48.827127215774745 0 0 0
14 0 8 -1.05 4.6991482611835504 3.206199727534719 -50.827976810814654 0 0 0
67 0 8 -1.05 2.174186332070273 7.355151036861498 -48.97429108688729 0 0 0
13 0 8 -1.05 4.512436277584097 1.3050974834873783 -48.58505473351666 0 0 0
66 0 8 -1.05 2.245027716846688 5.410272648458186 -51.003506014758585 0 0 0
8 0 8 -1.05 2.4376790987385775 0.9177289039969171 -50.789122376674676 0 0 0
10 0 8 -1.05 4.869260336656617 1.0096370697463 -53.45098971729731 0 0 0
61 0 8 -1.05 25.383410746936 4.998357418051204 -53.53477782418225 -1 0 0
2 0 8 -1.05 0.15730797732164944 3.5068766671498164 -51.12811653216149 0 0 0
20 0 7 1.575 7.816893032405321 0.14287538753797596 -52.296327289125145 0 0 0
81 0 8 -1.05 8.800607058628474 5.169259306875629 -53.37422958752442 0 0 0
22 0 8 -1.05 8.826857490240926 3.248134841769623 -51.1236824037886 0 0 0
91 0 7 1.575 11.89467469645525 4.455114487681777 -52.288745540446435 0 0 0
23 0 7 1.575 8.826189701055041 3.259371403688885 -53.168138257675636 0 0 0
27 0 7 1.575 10.967769770751259 1.2166142358688306 -53.12261823316001 0 0 0
26 0 8 -1.05 10.84888650423147 3.1535578558571666 -53.18838010829517 0 0 0
90 0 8 -1.05 11.07730139984549 7.807448615971183 -53.17126828620926 0 0 0
24 0 8 -1.05 8.995627397659032 1.30408997421002 -53.24267009998554 0 0 0
25 0 7 1.575 9.892637093595976 2.2368446781991387 -49.94210482769821 0 0 0
88 0 7 1.575 10.932871831932323 5.474101209649158 -49.125792055111724 0 0 0
83 0 7 1.575 8.802860131715443 7.567301155047122 -48.875907763825936 0 0 0
82 0 6 1.05 8.86001536817676 5.697005905089288 -51.485798800176006 0 0 0
89 0 6 1.05 10.873185247385889 7.642393199852021 -51.19001431383746 0 0 0
84 0 8 -1.05 9.139496787018565 5.595575650912744 -48.376271236734034 0 0 0
85 0 8 -1.05 8.828044479318041 7.648375734574758 -50.832504580652376 0 0 0
87 0 8 -1.05 10.918214434660065 7.442544206656627 -48.737812587185374 0 0 0
86 0 8 -1.05 10.85861042546696 5.522855235609717 -51.0180502737253 0 0 0
28 0 8 -1.05 10.959849511416792 1.142445173820552 -51.07125142440927 0 0 0
98 0 7 1.575 15.095496211982093 5.449322255138048 -53.110477202702626 0 0 0
94 0 7 1.575 13.02303658346857 7.607944389484989 -53.11240300493074 0 0 0
95 0 8 -1.05 13.151786071657407 5.599416902335344 -53.145966712209365 0 0 0
93 0 8 -1.05 12.96377605350074 7.651011907756231 -51.07582317558026 0 0 0
39 0 8 -1.05 15.187547381402842 3.3816555230379843 -53.07359491967128 0 0 0
99 0 8 -1.05 15.170402923384563 5.497539098880139 -51.021200143270434 0 0 0
97 0 8 -1.05 15.010377902773099 7.441236148419417 -53.14699072186079 0 0 0
96 0 7 1.575 14.042172060976014 6.6001213664488985 -49.94842174925895 0 0 0
31 0 6 1.05 12.95751879914479 1.2713429743747156 -51.04281594706569 0 0 0
32 0 7 1.575 12.991795289186165 3.367654859309816 -48.92875443413319 0 0 0
37 0 7 1.575 15.112520053607586 1.2017168290467033 -49.07761964002163 0 0 0
38 0 6 1.05 15.04758179923724 3.4591698780842846 -51.02420418015546 0 0 0
35 0 8 -1.05 15.001973525070047 1.4065890541875568 -51.01732866865558 0 0 0
36 0 8 -1.05 14.997105710802591 3.2564341085099824 -48.86252794858719 0 0 0
34 0 8 -1.05 12.932146657999983 3.4229192982340066 -50.89007484483532 0 0 0
33 0 8 -1.05 13.10445842966482 1.3356877013479953 -48.84377454106373 0 0 0
30 0 8 -1.05 13.05276986617675 1.1603884925833419 -53.10209217913583 0 0 0
40 0 7 1.575 15.049974176748048 1.3936652719403104 -53.02812823758062 0 0 0
60 0 7 1.575 24.485542348525783 0.03801652459279774 -52.05103200476846 0 0 0
50 0 8 -1.05 20.420020502404036 0.23028847044181947 -52.53699753670449 0 0 0
48 0 8 -1.05 19.644303639735405 1.165266518717476 -50.12967348357766 0 0 0
106 0 8 -1.05 19.202767035722715 5.6563362412402745 -50.969864722515894 0 0 0
53 0 8 -1.05 21.684742638902083 1.6675776593827332 -48.17449741577869 0 0 0
107 0 8 -1.05 19.290105558103384 7.617424051253048 -48.456881950490114 0 0 0
54 0 8 -1.05 21.46988536703012 3.3088782214095787 -50.85253486960097 0 0 0
56 0 8 -1.05 23.601516750753742 3.5436277599291617 -48.89887652681556 0 0 0
105 0 8 -1.05 17.28557111095555 7.627983140235454 -51.06919144240503 0 0 0
104 0 8 -1.05 17.2076385421093 5.679075276347394 -49.00793784631719 0 0 0
55 0 8 -1.05 23.469044834570497 1.3918125066190494 -50.94463102353873 0 0 0
109 0 7 1.575 19.252159951938 7.631640576855674 -51.366239460946545 0 0 0
58 0 7 1.575 23.5962950803538 3.4774579272667503 -51.01862956491589 0 0 0
57 0 6 1.05 23.80573524683748 1.477436813840873 -48.905569293122916 0 0 0
52 0 6 1.05 21.42312431905576 3.6360215392104793 -48.844674379100844 0 0 0
102 0 7 1.575 17.177394759591508 5.593372645270856 -51.061027801434506 0 0 0
103 0 6 1.05 17.21183936345733 7.763126027212714 -48.99575187825072 0 0 0
108 0 6 1.05 19.254259161247425 5.618344385251191 -48.9181535457431 0 0 0
51 0 7 1.575 21.465485610272477 1.3530439336872626 -51.14879056316019 0 0 0
116 0 7 1.575 22.636296359706666 6.834319738531421 -51.318129654302616 0 0 0
45 0 7 1.575 18.2941894071431 2.471898040106832 -49.84789161164263 0 0 0
117 0 8 -1.05 23.44208071017915 7.501168343303083 -52.96635165840628 0 0 0
119 0 8 -1.05 23.8868581722923 5.44565723480155 -51.07705694686006 0 0 0
59 0 8 -1.05 23.236041199126323 3.395448141627445 -52.97578525960539 0 0 0
113 0 8 -1.05 21.111800800045156 7.740499692586021 -50.655825239876926 0 0 0
44 0 8 -1.05 17.068518794006575 1.2806149589562528 -53.316917990309356 0 0 0
110 0 8 -1.05 19.459790636933278 7.828047028348996 -53.257736647524226 0 0 0
115 0 8 -1.05 21.552897588513265 5.797763158570298 -52.658375864376694 0 0 0
46 0 8 -1.05 19.322914962772877 3.078089418625987 -52.79938150465848 0 0 0
47 0 6 1.05 19.051900906690022 1.3072821589815222 -53.58695603388946 0 0 0
114 0 6 1.05 21.453565804714064 7.7560065623429 -53.71371691471871 0 0 0
43 0 6 1.05 17.28138610594121 3.3482572557221593 -52.974001408632496 0 0 0
118 0 6 1.05 23.41994752045909 5.405914261420693 -53.4541794854463 0 0 0
111 0 7 1.575 20.34788716152512 4.472685936744692 -52.02691906504679 0 0 0
42 0 8 -1.05 17.15750493506025 3.5769040379746633 -50.87157596574623 0 0 0
101 0 8 -1.05 17.04016104483791 5.34605989587763 -52.9902429032178 0 0 0
140 0 7 1.575 7.746232981301483 8.784824666089856 -52.11972659763062 0 0 0
128 0 8 -1.05 2.4952298387019116 9.523490583480685 -50.82978311974077 0 0 0
130 0 8 -1.05 4.45888425139136 9.489698230365592 -52.870712409760294 0 0 0
123 0 7 1.575 0.36395082745858653 11.847644875096474 -53.11555004340295 0 0 0
127 0 6 1.05 2.4997265605684253 9.688404095450338 -53.268976645344715 0 0 0
126 0 8 -1.05 2.3023846729776056 11.728043428010773 -52.931629153290466 0 0 0
124 0 8 -1.05 0.44722930987506126 9.881640033677087 -53.309044014571334 0 0 0
139 0 8 -1.05 6.8971228897696575 11.993073701428665 -53.01685158450326 0 0 0
125 0 7 1.575 1.4116958250999998 10.822046532882966 -49.9783446977583 0 0 0
131 0 7 1.575 4.5663447223040725 9.786368392380284 -51.00240078123985 0 0 0
132 0 7 1.575 4.543118236587904 11.890103476684743 -48.83533288299083 0 0 0
137 0 6 1.05 6.705723942141082 9.706667455802233 -48.85254518564787 0 0 0
138 0 6 1.05 6.664795613439044 11.827438210381944 -51.02288506893324 0 0 0
135 0 8 -1.05 6.563628473333357 9.719574990135918 -50.86347732037411 0 0 0
136 0 8 -1.05 6.529388197944655 11.789590074753542 -48.70185487703544 0 0 0
134 0 8 -1.05 4.486540266375224 11.767529730759165 -50.79621520383153 0 0 0
133 0 8 -1.05 4.58909076424407 9.909518875250253 -48.73849862047382 0 0 0
122 0 8 -1.05 0.17576806703498543 11.802451660818535 -51.02388491027006 0 0 0
191 0 7 1.575 3.5309381535721682 12.917337441273729 -52.13219065313376 0 0 0
198 0 7 1.575 6.732438649001851 13.967098613957033 -52.97629751329332 0 0 0
194 0 6 1.05 4.626739124476986 16.078134626695363 -53.22820376951284 0 0 0
195 0 8 -1.05 4.781292708188014 14.024132239344446 -52.997307174115136 0 0 0
190 0 8 -1.05 2.5628951233972708 16.231412528089937 -53.035191373701416 0 0 0
193 0 8 -1.05 4.389392323669378 16.16124332334773 -50.80940171444161 0 0 0
199 0 8 -1.05 6.784844123255876 13.906456518470714 -50.90329391545541 0 0 0
197 0 8 -1.05 6.655260937600522 15.913345696123667 -53.019669879221496 0 0 0
196 0 7 1.575 5.603172792257647 15.017307768723523 -49.93113356983406 0 0 0
188 0 6 1.05 2.4315225061395416 13.980891855075328 -48.912996727317925 0 0 0
183 0 7 1.575 0.2935331262935182 16.075799342222197 -48.957107397853335 0 0 0
182 0 6 1.05 0.3565352810707105 13.938185057657577 -51.12114053148955 0 0 0
189 0 7 1.575 2.4457638636988888 16.02439127598819 -51.128984740431214 0 0 0
184 0 8 -1.05 0.3267857033658515 14.09464652363262 -48.85198722204393 0 0 0
185 0 8 -1.05 0.3872088425445529 16.090312469446065 -50.91412744371032 0 0 0
187 0 8 -1.05 2.2661144271136293 16.058155581263403 -48.81162463129388 0 0 0
186 0 8 -1.05 2.4341067757105908 14.034335516826895 -50.927812955509744 0 0 0
181 0 8 -1.05 0.15975797079092027 13.804476532248517 -53.117204410749885 0 0 0
142 0 8 -1.05 8.782931079750695 11.905160756050114 -50.938209084149776 0 0 0
148 0 8 -1.05 11.01494762940568 9.69646996145383 -51.00170098212243 0 0 0
143 0 7 1.575 8.851273231336771 11.87904149070514 -52.97841751625869 0 0 0
147 0 7 1.575 10.964487773338607 9.779536362603485 -53.063243261976744 0 0 0
146 0 8 -1.05 10.840812776839718 11.751739427944441 -53.038369127063994 0 0 0
144 0 8 -1.05 8.992930768116874 9.904987564581882 -53.01169994259562 0 0 0
145 0 7 1.575 9.894048556010638 10.777523873118342 -49.91713931638636 0 0 0
201 0 8 -1.05 8.714651411103207 13.823422013609276 -53.032459992707444 0 0 0
211 0 7 1.575 12.010394108666766 13.00329090043284 -52.20714034328862 0 0 0
210 0 8 -1.05 11.249813538715514 16.339364353459274 -53.047732956819644 0 0 0
208 0 7 1.575 11.009022361274372 14.00126911775528 -48.93130603023728 0 0 0
203 0 6 1.05 8.824414674585654 16.113807171304195 -48.957747426204705 0 0 0
202 0 6 1.05 8.863600215388711 14.051661703027737 -51.036601319594546 0 0 0
209 0 7 1.575 10.986580497183315 16.12407045305396 -51.128469661589854 0 0 0
204 0 8 -1.05 9.011373967030247 14.047178607666325 -48.795967332645226 0 0 0
205 0 8 -1.05 8.983350065189583 16.17642134218146 -50.97341345753464 0 0 0
207 0 8 -1.05 10.933815931746187 15.975713364351009 -48.89141964794089 0 0 0
206 0 8 -1.05 11.033216864144878 14.112368011490673 -50.90218956274111 0 0 0
160 0 7 1.575 16.135107206330826 8.752481228718478 -52.32853315766524 0 0 0
150 0 8 -1.05 12.934263471885586 9.576606147913308 -53.12344864496071 0 0 0
159 0 8 -1.05 15.354719517859426 11.958979632703306 -53.04931920620537 0 0 0
151 0 6 1.05 13.080005209642474 9.76494022405595 -51.11755447029063 0 0 0
152 0 7 1.575 12.999247110172606 11.862835457781207 -48.930175972915315 0 0 0
157 0 6 1.05 15.149399664138738 9.859336221967094 -48.98132338058183 0 0 0
158 0 7 1.575 15.100580680547067 11.84906011274604 -51.141578148000484 0 0 0
155 0 8 -1.05 15.180366508119883 9.852003823582045 -51.01129180609025 0 0 0
156 0 8 -1.05 15.001125456626104 11.971757119604838 -49.05746294507294 0 0 0
154 0 8 -1.05 13.107010778114896 11.918129514256403 -50.93265487774367 0 0 0
153 0 8 -1.05 13.080122330349027 9.901914941174793 -48.80109819229051 0 0 0
218 0 6 1.05 15.078188727951808 13.861081595058677 -53.4491270538267 0 0 0
214 0 7 1.575 13.140928616631212 16.046651686684328 -53.22584204226725 0 0 0
215 0 8 -1.05 13.132659638731644 14.128543382352722 -53.272226414598435 0 0 0
213 0 8 -1.05 13.18633558646572 16.239420015841514 -51.21505239399896 0 0 0
219 0 8 -1.05 15.30448373239876 14.025585103951855 -50.89090838105484 0 0 0
217 0 8 -1.05 15.261129078572806 15.903805880207411 -53.04873570842965 0 0 0
216 0 7 1.575 15.115000947713087 16.09215543614299 -51.083005139619594 0 0 0
173 0 8 -1.05 21.59673948509189 9.801467321805156 -48.87167528991933 0 0 0
174 0 8 -1.05 21.45528765107048 11.82766007840354 -50.91610463200755 0 0 0
176 0 8 -1.05 23.45954511814091 11.701024695559347 -48.79528041144647 0 0 0
175 0 8 -1.05 23.565666058549077 9.60276818671628 -50.995622684093654 0 0 0
178 0 6 1.05 23.550257826207538 11.789371883861914 -51.25294505928946 0 0 0
177 0 7 1.575 23.587950956107868 9.741730456764737 -49.05320122100849 0 0 0
172 0 7 1.575 21.454002298162834 11.82238970403812 -48.96839147788049 0 0 0
171 0 6 1.05 21.44527982231696 9.804255518833575 -51.19725081762327 0 0 0
165 0 7 1.575 18.268551759753144 10.764526834811083 -49.969007353026605 0 0 0
179 0 8 -1.05 23.812544619900248 11.971534217474495 -53.21791952270467 0 0 0
164 0 8 -1.05 17.37322797019667 9.90275376960249 -53.244853713588064 0 0 0
166 0 8 -1.05 19.223723996520445 11.776880306808469 -53.165171275800915 0 0 0
167 0 7 1.575 19.339784005871305 9.809248745302865 -53.21436868965359 0 0 0
163 0 7 1.575 17.279605035779397 11.884775103009183 -53.14332761970693 0 0 0
170 0 8 -1.05 21.27513389317769 9.67186253742161 -53.17425365203965 0 0 0
168 0 8 -1.05 19.275429535565063 9.640341983800026 -51.1556919466168 0 0 0
162 0 8 -1.05 17.17799186177726 11.878296754507907 -51.08492827855345 0 0 0
180 0 7 1.575 24.739334934359416 8.769981523111383 -52.34916092682286 0 0 0
226 0 8 -1.05 19.401399462091216 14.022452557638706 -51.05962028151172 0 0 0
227 0 8 -1.05 19.304242648586555 15.957352758165039 -48.99488553886834 0 0 0
225 0 8 -1.05 17.304221691872822 15.974636390575355 -51.02219513492395 0 0 0
224 0 8 -1.05 17.214344918490273 14.120896351220814 -48.76144749050763 0 0 0
229 0 7 1.575 19.461278967669138 16.02314345502304 -51.119204283308164 0 0 0
222 0 6 1.05 17.359569786372827 13.871322647006945 -51.12735753367103 0 0 0
223 0 7 1.575 17.356891958141684 16.135789200422913 -49.01759539396188 0 0 0
228 0 6 1.05 19.41081328290479 13.899008700602627 -49.05359068872901 0 0 0
236 0 7 1.575 22.586654931067063 14.999029793581105 -50.01991206031088 0 0 0
237 0 8 -1.05 23.531119972872077 15.925637429631184 -53.168727472652535 0 0 0
239 0 8 -1.05 23.66148001374589 13.87118260758018 -51.08209454566847 0 0 0
233 0 8 -1.05 21.42398317517831 16.152608193831583 -51.010356446576026 0 0 0
230 0 8 -1.05 19.22412878201723 16.067588974240834 -53.053676347099014 0 0 0
235 0 8 -1.05 21.662139456016355 14.029937757252444 -53.20845511357908 0 0 0
234 0 6 1.05 21.50620489088257 16.064389633809224 -53.31332156192247 0 0 0
238 0 7 1.575 23.640203174316 13.955088848135173 -53.14298221889295 0 0 0
231 0 7 1.575 20.501500165549782 12.87892461810029 -52.271759847058156 0 0 0
221 0 8 -1.05 17.167780026330387 13.924234201360873 -53.20025122220204 0 0 0
260 0 7 1.575 7.799592932967528 17.168124329874793 -52.213428223916615 0 0 0
248 0 8 -1.05 2.455659126867127 18.097893231321354 -51.03380658012815 0 0 0
250 0 8 -1.05 4.405261963797753 18.138535652388903 -53.12199013987063 0 0 0
311 0 7 1.575 3.664700672091489 21.24901623004404 -52.395905268494424 0 0 0
318 0 6 1.05 6.767836744522943 22.360979013599696 -53.48346961013013 0 0 0
243 0 7 1.575 0.36350912483888664 20.204412080956555 -53.18680600652352 0 0 0
314 0 7 1.575 4.742055624501002 24.508834474671733 -53.30345911491803 0 0 0
247 0 7 1.575 2.489524008552417 18.17268684970823 -53.116868510696165 0 0 0
246 0 8 -1.05 2.3115109024808174 20.177303833748688 -53.20399454702793 0 0 0
315 0 8 -1.05 4.63146552562354 22.582245213163393 -53.33760711085842 0 0 0
310 0 8 -1.05 2.7442741866356757 24.95806234146971 -53.37720603201913 0 0 0
244 0 8 -1.05 0.5221620208982529 18.257984420954852 -53.15569141166417 0 0 0
313 0 8 -1.05 4.44680835211891 24.57827333759501 -51.23172347265167 0 0 0
259 0 8 -1.05 6.9011854599463325 20.40738159355068 -53.01875286702336 0 0 0
319 0 8 -1.05 6.7858468911759156 22.27488150354931 -50.825208454600684 0 0 0
317 0 8 -1.05 6.656760704230273 24.34249799493868 -53.112401848036534 0 0 0
245 0 7 1.575 1.3802202149568759 19.230101536598383 -49.95217592538105 0 0 0
316 0 7 1.575 5.568155758653849 23.51353439370872 -50.07946291725032 0 0 0
251 0 6 1.05 4.635579080022532 18.190198394469775 -51.141300586560234 0 0 0
308 0 6 1.05 2.5771468199393466 22.362286708698115 -49.10672311327 0 0 0
303 0 6 1.05 0.43283469548663345 24.552147783588634 -49.11423059573013 0 0 0
302 0 7 1.575 0.41276657336730366 22.348589446550584 -51.22099413877289 0 0 0
252 0 6 1.05 4.536494522237997 20.295708507368104 -48.97201834966222 0 0 0
257 0 7 1.575 6.6981060039851 18.165104140525152 -48.95333444944058 0 0 0
258 0 7 1.575 6.676134902422552 20.30214174355532 -51.107544672429384 0 0 0
309 0 7 1.575 2.459134829884415 24.479865246919758 -51.54711506946932 0 0 0
255 0 8 -1.05 6.758333872501701 18.266893597016054 -50.90870710520909 0 0 0
304 0 8 -1.05 0.5770556230124481 22.500596583140847 -49.170793722995846 0 0 0
305 0 8 -1.05 0.4420008258323179 24.43000234139487 -51.17255302875565 0 0 0
256 0 8 -1.05 6.637538522699753 20.158279945870472 -48.92218077143508 0 0 0
254 0 8 -1.05 4.658615226989352 20.337839423768408 -50.99703797893974 0 0 0
307 0 8 -1.05 2.356790266299802 24.63567724139905 -48.43004946336872 0 0 0
253 0 8 -1.05 4.720367316088925 18.253335150038854 -48.79262759107785 0 0 0
306 0 8 -1.05 2.449266531811744 22.519128250364716 -51.22677341730584 0 0 0
301 0 8 -1.05 0.024212751578380695 22.196756629879538 -53.11905835253168 0 0 0
242 0 8 -1.05 0.33914036216962706 20.337619413921924 -51.12515355321099 0 0 0
326 0 8 -1.05 10.963542948462873 22.4223667807295 -50.96236131404105 0 0 0
327 0 8 -1.05 10.801344829595596 24.39718734447659 -48.88259329616011 0 0 0
325 0 8 -1.05 8.812291439018132 24.53429362177046 -50.95533398530302 0 0 0
324 0 8 -1.05 8.952438400202054 22.532921395288806 -48.72382000515452 0 0 0
329 0 6 1.05 10.866329694836573 24.482818314378736 -51.20524788474412 0 0 0
322 0 6 1.05 8.78810539716904 22.48872516362595 -51.3405380594431 0 0 0
323 0 7 1.575 8.776503003324827 24.519408767223794 -49.01930970496267 0 0 0
328 0 7 1.575 10.93099954048655 22.396106321390423 -49.01224521198188 0 0 0
265 0 7 1.575 9.857416476469796 19.22589390756737 -50.017771210409954 0 0 0
264 0 8 -1.05 8.923499816218479 18.34596145112257 -53.18521273041874 0 0 0
330 0 8 -1.05 11.209277576062867 24.73199540339202 -53.18881250592668 0 0 0
266 0 8 -1.05 10.8893963477078 20.17450597271702 -53.157552894428555 0 0 0
267 0 6 1.05 10.877540535064028 18.201613836406047 -53.617972090055474 0 0 0
263 0 7 1.575 8.876143490309547 20.276975186388785 -53.12066078465374 0 0 0
321 0 8 -1.05 8.820596134218974 22.19712009975117 -53.30226128282137 0 0 0
262 0 8 -1.05 8.757152843631077 20.373401847531724 -51.04891307165457 0 0 0
268 0 8 -1.05 11.139545352604706 18.081640910875024 -50.79239858875168 0 0 0
331 0 7 1.575 11.99513212210241 21.45835223046195 -52.321670254364086 0 0 0
280 0 7 1.575 17.270675354998104 15.883935556274798 -53.21536327816955 0 0 0
273 0 8 -1.05 13.20448661604652 18.36383224819839 -48.7198474502121 0 0 0
274 0 8 -1.05 13.145272534865592 20.33910511070925 -51.06500143763788 0 0 0
276 0 8 -1.05 13.502042594226804 20.40383320254282 -46.992385696457696 0 0 0
275 0 8 -1.05 15.176973976707199 18.21825265242055 -51.073264243496205 0 0 0
278 0 7 1.575 15.116323247215906 20.253220649615418 -51.196656991108064 0 0 0
277 0 6 1.05 15.18142334173748 18.149534407940074 -49.052794637637696 0 0 0
272 0 7 1.575 13.028552347718913 20.276106880410964 -49.09528513083901 0 0 0
271 0 6 1.05 13.001306324382718 18.295364132989917 -51.5168272198338 0 0 0
336 0 7 1.575 14.18067483631842 23.392057647037575 -50.13631568301955 0 0 0
337 0 8 -1.05 15.003930219903292 24.824724753825667 -53.220176117460795 0 0 0
339 0 8 -1.05 15.34178680634569 22.242168213784815 -51.13342341216636 0 0 0
279 0 8 -1.05 15.422797889925802 20.360547863056375 -53.08081387152756 0 0 0
333 0 8 -1.05 13.024125835017557 24.596648697201992 -51.04729161010633 0 0 0
335 0 8 -1.05 13.40056264908544 22.57944919937209 -53.07100728542896 0 0 0
334 0 7 1.575 13.102619368563527 24.525782299806053 -53.055400809400915 0 0 0
270 0 8 -1.05 13.402269396648709 17.96044301239061 -53.49075290996181 0 0 0
338 0 7 1.575 15.381960595276976 22.302879596550603 -53.16954025305165 0 0 0
346 0 8 -1.05 20.50490936019868 23.019222412367437 -51.42481730459214 0 0 0
293 0 8 -1.05 21.58919664348038 18.279143918668684 -48.89935577287381 0 0 0
347 0 8 -1.05 17.309773740558878 24.466994780488893 -47.05386333198795 0 0 0
294 0 8 -1.05 21.57271056076573 20.160002277658954 -50.96567453808025 0 0 0
296 0 8 -1.05 23.528447452003864 20.265227463725942 -48.5907214971891 0 0 0
345 0 8 -1.05 19.282582831758816 24.08469561562713 -48.91237177777889 0 0 0
344 0 8 -1.05 15.294555185826582 22.395619957665684 -46.66307392549034 0 0 0
295 0 8 -1.05 23.52783390455342 18.10417427582669 -51.09695790204214 0 0 0
349 0 7 1.575 19.67631057258173 24.75496395197986 -50.9350010851904 0 0 0
298 0 6 1.05 23.687417578913674 20.138063755053423 -51.33388432572687 0 0 0
297 0 6 1.05 23.671571377756614 18.16303519623278 -49.09469923869023 0 0 0
292 0 7 1.575 21.550135685354075 20.225660312040944 -48.97870672473324 0 0 0
342 0 6 1.05 16.942277345357194 24.716933892478014 -52.821043783070095 0 0 0
343 0 7 1.575 17.31030830227687 24.651502286396433 -49.12346230415933 0 0 0
348 0 6 1.05 19.52971053642562 22.142381524625833 -49.849867849423674 0 0 0
291 0 7 1.575 21.538362468447282 18.128664903009135 -51.289820205223855 0 0 0
356 0 7 1.575 22.37193780000578 23.38050423621521 -50.63040302076448 0 0 0
285 0 7 1.575 18.47758037999958 19.3314755374351 -50.00200386028112 0 0 0
357 0 8 -1.05 23.00894294304899 24.274590474572307 -52.32539847165874 0 0 0
359 0 8 -1.05 23.826032327159268 22.138497021132775 -50.674808432879416 0 0 0
299 0 8 -1.05 23.86465970345099 20.12414814294218 -53.30000471998286 0 0 0
353 0 8 -1.05 21.565293809475847 25.03556841833652 -50.07725943323734 0 0 0
284 0 8 -1.05 17.215142172375927 17.682052471683484 -53.93321174498959 0 0 0
350 0 8 -1.05 17.775038091061013 24.584129294107086 -51.00305111933555 0 0 0
355 0 8 -1.05 21.52714614408462 22.037435401143757 -53.67023432591561 0 0 0
286 0 8 -1.05 18.869215637339877 20.76870120078011 -51.252326401144764 0 0 0
287 0 6 1.05 19.188697790360248 17.949518123236786 -53.843899027757296 0 0 0
354 0 6 1.05 21.25827527250577 23.957569156370838 -53.290110049481456 0 0 0
283 0 6 1.05 15.356615520919311 18.458036017116367 -53.73000981260068 0 0 0
358 0 6 1.05 23.544269057202367 21.994116105316817 -53.80074567177585 0 0 0
351 0 7 1.575 20.48256231974324 21.119882036220353 -52.332200108623 0 0 0
290 0 8 -1.05 21.027324823302415 18.159398344433182 -53.14629309381015 0 0 0
288 0 8 -1.05 19.524536521082755 17.9947113316374 -50.83252650259537 0 0 0
282 0 8 -1.05 15.198780893064919 20.23762399198657 -49.187879882042125 0 0 0
341 0 8 -1.05 17.104836311847993 22.951256433252755 -53.64695432267142 0 0 0
300 0 7 1.575 24.778950203959752 17.044426257153887 -52.29386527849501 0 0 0
416 0 7 1.575 7.710236955086575 4.402277293511494 -47.92819043690383 0 0 0
368 0 6 1.05 2.3731559357495966 3.459020176617983 -46.7229563874197 0 0 0
415 0 6 1.05 6.736381401839638 7.525845808643725 -46.78828285530134 0 0 0
361 0 7 1.575 0.32497723545926643 1.333496647236387 -46.71776770657233 0 0 0
408 0 7 1.575 4.623169625956092 5.381075638791501 -46.7729717244341 0 0 0
371 0 8 -1.05 4.478512584359181 3.341309100130357 -46.77868410308181 0 0 0
411 0 8 -1.05 4.605827205902835 7.43961174710182 -46.757040028132316 0 0 0
80 0 8 -1.05 6.798326522620494 7.534442101582159 -48.81932780733582 0 0 0
72 0 8 -1.05 4.582272152347475 5.320094589864264 -48.786738380374715 0 0 0
365 0 8 -1.05 2.4894266158544776 1.304713683309727 -46.571683473802615 0 0 0
406 0 8 -1.05 2.6086560443424456 5.457173870987081 -46.69547999255689 0 0 0
412 0 8 -1.05 6.6119683205257935 5.420233974125853 -46.68687838655832 0 0 0
364 0 8 -1.05 0.2901352385816026 3.336590704485614 -46.70702515532085 0 0 0
9 0 8 -1.05 2.6173779082571005 3.2055734022984135 -48.75521705226077 0 0 0
373 0 8 -1.05 6.556186126498811 0.980246730260233 -46.488494736447365 0 0 0
404 0 8 -1.05 0.17533445373911355 8.329093257379556 -45.52192818102171 0 0 0
1 0 8 -1.05 0.4445258713321933 1.1340283065021384 -48.65782788255793 0 0 0
372 0 7 1.575 4.6054733681765185 1.3397441930093996 -46.63697332768199 0 0 0
405 0 7 1.575 1.2903548354373153 6.6667601123586 -45.90536612632823 0 0 0
369 0 7 1.575 2.5084500227811404 1.1501677525988059 -48.85950042736846 0 0 0
663 0 7 1.575 3.6092955797902158 4.4089156036630675 -43.608774528525736 0 0 0
414 0 6 1.05 6.70731236308664 5.354883445737171 -44.659580716144184 0 0 0
362 0 6 1.05 0.3053100613139728 3.435286871724883 -44.66245137259334 0 0 0
409 0 7 1.575 4.625924234185849 7.588064657719349 -44.784168822788686 0 0 0
367 0 7 1.575 2.450022109838055 1.293410361573484 -44.5685529609491 0 0 0
366 0 8 -1.05 2.4021745154084955 3.257098995599961 -44.52615013454944 0 0 0
410 0 8 -1.05 4.6497179673362465 5.569830219428987 -44.68853285756744 0 0 0
407 0 8 -1.05 2.6153245346378187 7.576967395270183 -44.504844888319234 0 0 0
363 0 8 -1.05 0.4750598494758426 1.3226248810905334 -44.67516400710293 0 0 0
665 0 8 -1.05 4.549350803605529 7.592409109834617 -42.48471114324166 0 0 0
374 0 8 -1.05 6.86898155124452 3.202108485701379 -44.366364485625134 0 0 0
667 0 8 -1.05 6.8538591519937135 5.422202411400304 -42.380096894255054 0 0 0
413 0 8 -1.05 6.6043479817407205 7.487623811595872 -44.57601003246831 0 0 0
615 0 7 1.575 1.422802359024522 2.2211659200901814 -41.41058460654004 0 0 0
666 0 7 1.575 5.670501705638919 6.5219813267232025 -41.38878558036396 0 0 0
618 0 7 1.575 4.565988331888798 1.3210610502488664 -42.49315022179717 0 0 0
655 0 6 1.05 0.47073052813345506 5.399934642830186 -42.617770998667325 0 0 0
625 0 6 1.05 6.735393168422959 3.3824592613553817 -42.37814117936808 0 0 0
662 0 7 1.575 2.5800863422900924 7.53549312416036 -42.537714693275234 0 0 0
622 0 8 -1.05 6.578139048837224 1.151174392250484 -42.44337101779464 0 0 0
658 0 8 -1.05 0.5814893058887078 7.518376691086619 -42.36817507507866 0 0 0
621 0 8 -1.05 4.602055907606585 3.2973325276015824 -42.30944867554522 0 0 0
659 0 8 -1.05 2.522973880235366 5.511321986568726 -42.41804601866627 0 0 0
616 0 8 -1.05 2.5957679541287924 1.1890133099991762 -42.53753033113176 0 0 0
370 0 8 -1.05 4.5809027004529685 1.1739612582190664 -44.4891740760587 0 0 0
403 0 8 -1.05 0.15690898012430854 5.579599835595792 -44.60335595679583 0 0 0
614 0 8 -1.05 0.22061372316887964 3.3491323558135675 -42.381637371983565 0 0 0
626 0 7 1.575 6.805389487124541 1.2112067146624073 -44.55447016691682 0 0 0
418 0 8 -1.05 8.835305436687804 7.747274665069416 -46.68249232501897 0 0 0
21 0 8 -1.05 8.789618723747187 1.082419151249776 -48.83729987634991 0 0 0
382 0 6 1.05 10.88933940924838 3.3168358486808263 -46.752279185667284 0 0 0
375 0 6 1.05 8.724902106527793 1.2556117287785917 -46.843724948167484 0 0 0
379 0 8 -1.05 10.860554892118058 1.2032670944091546 -46.70112384417154 0 0 0
420 0 8 -1.05 11.3497911407472 5.318741228960389 -45.76676910988865 0 0 0
378 0 8 -1.05 8.8124116934434 3.348971055273955 -46.614808857984066 0 0 0
29 0 8 -1.05 10.972928372158677 3.462708101403586 -48.81118975663772 0 0 0
419 0 7 1.575 9.881793589293554 6.553005417882183 -45.646636782940945 0 0 0
383 0 7 1.575 11.93729317802378 0.120566912059497 -47.91841655735389 0 0 0
417 0 8 -1.05 8.837235320615695 5.376537618776846 -44.45655539034295 0 0 0