LAMMPS data file via write_data, version 17 Feb 2022, timestep = 164

4356 atoms
10 atom types
72 bonds
6 bond types
108 angles
6 angle types
0 dihedrals
2 dihedral types
18 impropers
2 improper types

0 25.44 xlo xhi
0 25.44 ylo yhi
-64.778423 32.908 zlo zhi

Masses

1 12.011
2 1.008
3 15.9994
4 15.9994
5 1.008
6 55.845
7 55.845
8 15.9994
9 15.9994
10 1.008

Pair Coeffs # lj/cut/coul/long

1 0.0988 3.31521
2 0.0161 2.4473
3 0.1463 3.04812
4 0.093 3.24287
5 0.0047 0.537925
6 9.0298e-07 4.9062
7 9.0298e-07 4.9062
8 0.1554 3.16554
9 0.1554 3.16554
10 0 0

Bond Coeffs # harmonic

1 361.8 1.105
2 652.57 1.218
3 383.13 1.351
4 563.51 0.973
5 554.135 1
6 0 2.08

Angle Coeffs # harmonic

1 51.617 106.55
2 65.93 123.65
3 65.262 109.49
4 115.745 122.1
5 118.817 130.25
6 30 109.47

Dihedral Coeffs # fourier

1 1 2.3 2 180
2 2 2.3 2 180 1.9 1 0

Improper Coeffs # cvff

1 10.5 -1 2
2 10.5 -1 2

Atoms # full

71 0 7 1.575 3.3800913027752384 4.513843810185262 -51.796146922779386 0 0 0
78 0 6 1.05 6.423694156675045 5.662616759465984 -53.05859230013484 0 0 0
3 0 6 1.05 25.429415170248713 3.3933614620034613 -53.38213355068971 -1 0 0
74 0 6 1.05 4.416899407933948 7.855859570029428 -53.75053091019562 0 0 0
7 0 6 1.05 2.2126575677266 1.173817027297821 -53.53605208610096 0 0 0
6 0 8 -1.05 2.087933814865005 3.268480353996905 -52.47893787683767 0 0 0
75 0 8 -1.05 4.720033331597946 5.8793252245530105 -51.74581445761391 0 0 0
70 0 8 -1.05 2.6146563737219504 7.616644517489021 -52.970331291697505 0 0 0
4 0 8 -1.05 0.2677782107285528 1.3678972443423505 -52.666290506682984 0 0 0
73 0 8 -1.05 3.7507882232351233 7.543342375573494 -49.66409516290527 0 0 0
19 0 8 -1.05 6.501160350306557 3.644972462562372 -52.79974095370347 0 0 0
79 0 8 -1.05 6.793122707864778 5.1915581648325295 -50.116488340694495 0 0 0
77 0 8 -1.05 6.318542439672883 7.670579910783797 -53.19095342385243 0 0 0
11 0 6 1.05 4.400281981916182 1.2054640433887394 -51.32026953851643 0 0 0
62 0 7 1.575 0.1276519368955329 5.525483005423904 -51.19062353770078 0 0 0
18 0 7 1.575 6.466658019612351 3.315544222539599 -50.90114394923331 0 0 0
69 0 7 1.575 2.316193749701938 7.624251467934147 -51.11085521082221 0 0 0
15 0 8 -1.05 6.449285064669722 1.2891569857748915 -51.00403110509876 0 0 0
65 0 8 -1.05 0.21727020707881303 7.550707587057454 -51.034636770940864 0 0 0
14 0 8 -1.05 4.43546985392529 3.2331504576301535 -50.72650610538327 0 0 0
66 0 8 -1.05 2.038645822889908 5.588200992165724 -50.69455959825606 0 0 0
8 0 8 -1.05 2.249480432899552 0.868087877116749 -50.63204703047583 0 0 0
10 0 8 -1.05 4.182004169381331 1.012432211941799 -53.2700082063823 0 0 0
61 0 8 -1.05 25.307740621756942 5.377224124031654 -53.05941003510875 -1 0 0
2 0 8 -1.05 25.123768819785198 3.573534132601366 -51.000807268329325 -1 0 0
20 0 7 1.575 7.514499982662 0.1910055123215051 -52.275844938119846 0 0 0
81 0 8 -1.05 8.430538580204098 5.378828151950796 -52.996607522883096 0 0 0
22 0 8 -1.05 8.493559670387619 3.364242995897865 -50.97691703078712 0 0 0
91 0 7 1.575 11.624689606116071 4.565247155820241 -52.19227276182047 0 0 0
23 0 7 1.575 8.491935633849522 3.437856004118342 -53.02913061534681 0 0 0
27 0 7 1.575 10.644450494737503 1.3693123864755314 -53.107476683665745 0 0 0
26 0 8 -1.05 10.514012958006663 3.309826806461385 -53.09280038003602 0 0 0
90 0 8 -1.05 10.831058555205093 7.816402340427785 -53.13113753724537 0 0 0
24 0 8 -1.05 8.658317529442918 1.4656239118060894 -53.13604657697976 0 0 0
82 0 6 1.05 8.598361292416953 5.553723901347141 -51.04111109500144 0 0 0
89 0 6 1.05 10.63683447808969 7.638282454924879 -51.13550267775611 0 0 0
85 0 8 -1.05 8.55079703036651 7.645627164977148 -50.79938863585222 0 0 0
86 0 8 -1.05 10.64136943589814 5.570635887204476 -50.83315761701056 0 0 0
28 0 8 -1.05 10.694271736871277 1.2346618833825296 -51.07781963060351 0 0 0
98 0 7 1.575 14.88887415185043 5.452821545214823 -53.09150328079373 0 0 0
94 0 7 1.575 12.79966616349856 7.631717423474232 -53.08831499765879 0 0 0
95 0 8 -1.05 12.920436749379414 5.628594226531966 -53.09774826286027 0 0 0
93 0 8 -1.05 12.732146604059444 7.6952624292141625 -51.05275960312109 0 0 0
39 0 8 -1.05 15.006479490306214 3.370881444354301 -53.018606269075185 0 0 0
99 0 8 -1.05 14.958780518885963 5.571389066728611 -51.024543634362146 0 0 0
97 0 8 -1.05 14.789663867893713 7.447415461706324 -53.14624348618516 0 0 0
31 0 6 1.05 12.702352843562918 1.3845179775063978 -51.093400942935425 0 0 0
38 0 6 1.05 14.763203819703227 3.5026279281257735 -50.99924092221875 0 0 0
35 0 8 -1.05 14.745273585586833 1.4209785347251715 -50.98684725271165 0 0 0
34 0 8 -1.05 12.675753669795196 3.4919210886717593 -50.871830353623764 0 0 0
30 0 8 -1.05 12.91855771076935 1.219123367466703 -53.13911544235852 0 0 0
40 0 7 1.575 14.968186111273406 1.345419853983505 -52.985532786346916 0 0 0
60 0 7 1.575 24.461081257930502 25.415309273408337 -52.15266438892323 0 -1 0
50 0 8 -1.05 20.957412905293268 1.0525293713657788 -52.640528404870054 0 0 0
48 0 8 -1.05 19.178899537171 0.6355822389952949 -49.98582991316962 0 0 0
106 0 8 -1.05 19.07251840960705 5.626322126098894 -50.99890936545035 0 0 0
54 0 8 -1.05 21.37026405517169 3.0007452984934013 -50.69276415861429 0 0 0
105 0 8 -1.05 17.15118319284437 7.611110692154986 -51.10913933107411 0 0 0
55 0 8 -1.05 23.39059978118559 1.1625928364295202 -50.91055707989513 0 0 0
109 0 7 1.575 19.159931823195905 7.5891746567855805 -51.37053760414559 0 0 0
58 0 7 1.575 23.239826401733296 3.1105811376289556 -51.328511168565576 0 0 0
102 0 7 1.575 16.993714083521294 5.582256233964468 -51.046928372248594 0 0 0
51 0 7 1.575 21.36492778912043 1.037589853557644 -50.76469459528948 0 0 0
117 0 8 -1.05 23.178101399639512 7.492929914624924 -53.02950265592603 0 0 0
119 0 8 -1.05 24.205926382259236 5.702565356622845 -49.71901644492014 0 0 0
59 0 8 -1.05 23.403541603444715 3.4422952234169117 -53.20438805020401 0 0 0
113 0 8 -1.05 20.96696038197126 7.702554345512373 -50.50413311406316 0 0 0
44 0 8 -1.05 16.932437780814844 1.3386482083869393 -53.396925023610535 0 0 0
110 0 8 -1.05 19.539819909720908 7.867509789135159 -53.225848560792635 0 0 0
115 0 8 -1.05 22.006660850161158 5.29389102239031 -51.70149050203855 0 0 0
46 0 8 -1.05 18.948237283827762 2.9063418785059567 -52.021236817261936 0 0 0
47 0 6 1.05 19.074583020595973 1.2988250268629742 -53.34788971066633 0 0 0
114 0 6 1.05 21.478950795838834 8.158280831073979 -53.80090012039933 0 0 0
43 0 6 1.05 17.076481513643152 3.327412899333428 -52.88442242618101 0 0 0
118 0 6 1.05 23.324556773445526 5.49394218789338 -53.33517975828913 0 0 0
111 0 7 1.575 20.31158970907449 4.27747839628277 -51.728870999055694 0 0 0
42 0 8 -1.05 16.79631392741131 3.6156882420810494 -50.71670714661988 0 0 0
101 0 8 -1.05 16.847469595645283 5.3188615767880565 -52.96856177317932 0 0 0
140 0 7 1.575 7.6342690295015565 8.633672266541065 -52.22096363236323 0 0 0
128 0 8 -1.05 2.3161410262433257 9.536690664408146 -50.865456418189844 0 0 0
130 0 8 -1.05 4.143067849089478 9.810762776628524 -53.70506020629817 0 0 0
123 0 7 1.575 0.09969888260160814 11.893138533640116 -52.99221310712968 0 0 0
127 0 6 1.05 2.1980549902104496 9.732241317374775 -53.1210269817587 0 0 0
126 0 8 -1.05 2.049309102661234 11.807051151251933 -52.829155627604486 0 0 0
124 0 8 -1.05 0.16161113718595094 9.918403786093956 -53.00510562750954 0 0 0
139 0 8 -1.05 6.619496398015638 12.01862684609014 -53.00079451455773 0 0 0
131 0 7 1.575 5.201749260431122 10.7960942846335 -52.54435268931199 0 0 0
138 0 6 1.05 6.6602442943282325 12.031714559844149 -50.915982347768185 0 0 0
135 0 8 -1.05 6.401836284188544 9.902121173297566 -51.21011046902081 0 0 0
134 0 8 -1.05 4.457905021429182 12.010280315407767 -51.181371630268316 0 0 0
122 0 8 -1.05 25.351225336184914 11.947596155752503 -50.9224409899406 -1 0 0
191 0 7 1.575 3.130811059581626 13.253381396802515 -52.28049808850199 0 0 0
198 0 7 1.575 6.48647790170322 14.101817883669092 -53.02059129958419 0 0 0
194 0 6 1.05 4.373729412920857 16.19427850523339 -53.35215695747088 0 0 0
195 0 8 -1.05 4.547465727278524 14.090561116885123 -53.20371962126582 0 0 0
190 0 8 -1.05 2.3414570185163597 16.28514295655552 -52.93421699751001 0 0 0
193 0 8 -1.05 4.140463034797204 16.19347238107834 -50.64418146026027 0 0 0
199 0 8 -1.05 6.531520167728467 14.044383397648804 -50.95378431255688 0 0 0
197 0 8 -1.05 6.39414740291112 16.03448789179205 -53.049365081674985 0 0 0
182 0 6 1.05 0.07630864286079796 14.05931480753607 -51.000459152614255 0 0 0
189 0 7 1.575 2.187245135211798 16.16311630625031 -51.021132814950754 0 0 0
185 0 8 -1.05 0.12155415935323231 16.233900735010725 -50.78427451379838 0 0 0
186 0 8 -1.05 2.1847543429047396 14.183665352781516 -50.87589175205026 0 0 0
181 0 8 -1.05 25.415078807715588 13.870789996820342 -52.99586976053415 -1 0 0
142 0 8 -1.05 8.653981486878386 11.982349348826864 -50.995703457789276 0 0 0
148 0 8 -1.05 10.752749174440487 9.723147899921706 -51.03155766678385 0 0 0
143 0 7 1.575 8.65729023338682 11.927257305396504 -53.03296010185821 0 0 0
147 0 7 1.575 10.72755533517213 9.786376195698496 -53.076142560610556 0 0 0
146 0 8 -1.05 10.622543283146262 11.76970139350589 -53.08635010471592 0 0 0
144 0 8 -1.05 8.730890784507 9.945743028721798 -53.07197259492695 0 0 0
201 0 8 -1.05 8.433975848759072 13.859332859632346 -53.06755817168773 0 0 0
211 0 7 1.575 11.830821718891432 12.983905097436113 -52.249114575258766 0 0 0
210 0 8 -1.05 11.036313299482261 16.300747768699207 -53.24974300893676 0 0 0
202 0 6 1.05 8.597256192836097 14.091467689975664 -51.06616133505403 0 0 0
209 0 7 1.575 10.569723675112044 16.11766950364389 -51.45350717900479 0 0 0
205 0 8 -1.05 8.665799603397648 16.167496041830773 -50.97056933445639 0 0 0
206 0 8 -1.05 10.728714269682584 14.154382879085112 -50.98215640663032 0 0 0
160 0 7 1.575 15.936042852038591 8.728960426930728 -52.3126153787656 0 0 0
150 0 8 -1.05 12.681520186728575 9.598081367477178 -53.119781905606295 0 0 0
159 0 8 -1.05 15.088241676125778 11.933535653478119 -53.04349136767797 0 0 0
151 0 6 1.05 12.854665509566797 9.795855518636646 -51.121697189025795 0 0 0
158 0 7 1.575 14.943565190084847 11.83750970315974 -51.13009021047821 0 0 0
155 0 8 -1.05 14.96010771002694 9.82948339362237 -51.00055198811691 0 0 0
154 0 8 -1.05 12.896373824672745 11.95947057264279 -50.89173266560482 0 0 0
218 0 6 1.05 14.977305447157368 14.031603987275433 -53.201531999486754 0 0 0
214 0 7 1.575 12.96722121180554 16.17090505926292 -53.42296972484452 0 0 0
215 0 8 -1.05 12.971029733271935 14.253374361275833 -53.07971512992762 0 0 0
213 0 8 -1.05 12.632889800198479 16.119034276882736 -50.77842623489524 0 0 0
219 0 8 -1.05 15.119967463838288 13.806024157759856 -50.97321309268873 0 0 0
217 0 8 -1.05 14.88108516623855 16.194986985109576 -52.98417698021298 0 0 0
174 0 8 -1.05 21.199165934958767 11.878635684741218 -50.83892578197055 0 0 0
175 0 8 -1.05 23.319175974508966 9.673523957027053 -50.896479538425034 0 0 0
178 0 6 1.05 23.273452652597197 11.82879832345506 -51.23555685021176 0 0 0
171 0 6 1.05 21.268659393628532 9.811545196238256 -51.178846276282954 0 0 0
179 0 8 -1.05 23.60068277787025 12.068729346576324 -53.176676903061605 0 0 0
164 0 8 -1.05 17.194096086161853 9.852793926601679 -53.215078649695776 0 0 0
166 0 8 -1.05 18.97377004736349 11.775837424754961 -53.08087774939206 0 0 0
167 0 7 1.575 19.159952461855912 9.84056689379889 -53.14603120968804 0 0 0
163 0 7 1.575 17.02468577975044 11.859263618498 -53.178812533019574 0 0 0
170 0 8 -1.05 21.092243303535092 9.961945641853209 -53.14741195574049 0 0 0
168 0 8 -1.05 19.13249412778155 9.593473404904708 -51.082790317616706 0 0 0
162 0 8 -1.05 16.98387978347597 11.843541445456152 -51.03626410180204 0 0 0
180 0 7 1.575 24.436892612581847 8.673131807290355 -52.20162887577036 0 0 0
226 0 8 -1.05 19.199081557514216 14.075301230817988 -50.99064711943835 0 0 0
225 0 8 -1.05 17.166574133896585 16.139290438343725 -50.859326601746744 0 0 0
229 0 7 1.575 19.179224460788735 16.08792683712604 -51.030134893051404 0 0 0
222 0 6 1.05 17.147668107933814 14.01354061957755 -51.315349340849366 0 0 0
237 0 8 -1.05 23.29575258287329 15.993448952013528 -52.97809161822009 0 0 0
239 0 8 -1.05 23.41562016665249 13.928542461297251 -50.94390282409755 0 0 0
233 0 8 -1.05 21.152498963850057 16.26112301433591 -50.80279039359054 0 0 0
230 0 8 -1.05 19.162677740796138 16.171304966832277 -52.94054396096586 0 0 0
235 0 8 -1.05 21.47669601571671 14.061108834068046 -53.096150060640056 0 0 0
234 0 6 1.05 21.253581652473613 16.07757069281128 -53.23505030221825 0 0 0
238 0 7 1.575 23.436672303686304 14.036799933067169 -53.033820148632806 0 0 0
231 0 7 1.575 20.2325600738849 12.930889859930591 -52.244423897133395 0 0 0
221 0 8 -1.05 16.960249954094863 13.793854091237305 -53.27502297055984 0 0 0
260 0 7 1.575 7.503901344500289 17.28387535930578 -52.182388180261974 0 0 0
248 0 8 -1.05 2.227168737858408 18.164710088861433 -50.91886857979013 0 0 0
250 0 8 -1.05 4.130721966884378 18.196059928979036 -53.04266898487135 0 0 0
311 0 7 1.575 3.3030408980245687 21.33557758602454 -52.156847416109464 0 0 0
318 0 6 1.05 6.489716925727088 22.397050299440654 -53.31205765870842 0 0 0
243 0 7 1.575 0.05891447922731549 20.34827044454426 -53.042447284023204 0 0 0
314 0 7 1.575 4.350286900558405 24.49031034834086 -53.19329659939223 0 0 0
247 0 7 1.575 2.1992050009953132 18.257853952386455 -53.017136279666296 0 0 0
246 0 8 -1.05 2.018754861973787 20.2427942216483 -53.02723894200804 0 0 0
315 0 8 -1.05 4.404679483850757 22.548385511320802 -53.10384439335978 0 0 0
310 0 8 -1.05 2.341330863089536 24.626945253610735 -53.1554360496164 0 0 0
244 0 8 -1.05 0.2227739540727642 18.365051980423296 -53.00396716310098 0 0 0
313 0 8 -1.05 4.16109535798819 24.524817311987622 -51.07445916396394 0 0 0
259 0 8 -1.05 6.726877619206172 20.3671712071801 -52.97210054572503 0 0 0
319 0 8 -1.05 6.52415281800067 22.304372017675618 -50.80478936774402 0 0 0
317 0 8 -1.05 6.294673721604711 24.456038829151776 -53.11007200217487 0 0 0
251 0 6 1.05 4.378496198048472 18.238019428140394 -51.06183960354764 0 0 0
302 0 7 1.575 25.433453616527647 22.322981959888935 -50.82581331725773 -1 0 0
258 0 7 1.575 6.421559383860353 20.33998680506884 -51.06997573384831 0 0 0
309 0 7 1.575 2.1367040913988675 24.393864664237707 -51.28163464340984 0 0 0
255 0 8 -1.05 6.507932798059123 18.305280764255482 -50.81030547714141 0 0 0
305 0 8 -1.05 0.1486222085604732 24.393003283942164 -50.87237455829736 0 0 0
254 0 8 -1.05 4.423749758051353 20.360462522812337 -50.886921897024635 0 0 0
306 0 8 -1.05 2.1266518881459477 22.458129691533195 -50.87464407547959 0 0 0
301 0 8 -1.05 25.251567540372076 22.291648398636905 -52.741604032283256 -1 0 0
242 0 8 -1.05 25.417155763225765 20.317989639711303 -50.91359835269958 -1 0 0
326 0 8 -1.05 10.727357975367589 22.45898200549117 -50.93173324120539 0 0 0
325 0 8 -1.05 8.54466762205379 24.583031471197213 -50.94452299082081 0 0 0
329 0 6 1.05 10.59412608528676 24.544762116840392 -51.271931323562036 0 0 0
322 0 6 1.05 8.534922206409226 22.519721210694684 -51.242650688834594 0 0 0
264 0 8 -1.05 8.825816374813666 18.36221517560702 -53.016871579700236 0 0 0
330 0 8 -1.05 10.929707528354863 24.907911872789963 -53.24074606396435 0 0 0
266 0 8 -1.05 10.70465635296235 20.24580228926883 -53.05878928514072 0 0 0
267 0 6 1.05 10.792934259217002 18.27860200759596 -53.70518791543406 0 0 0
263 0 7 1.575 8.701106779602727 20.31871252677274 -53.05465621226518 0 0 0
321 0 8 -1.05 8.559956208950519 22.24788594820678 -53.19983713238714 0 0 0
262 0 8 -1.05 8.506621530452882 20.428001135196624 -50.976718323838035 0 0 0
268 0 8 -1.05 10.749331904134968 17.924997890642306 -50.54246350270148 0 0 0
331 0 7 1.575 11.831617894259162 21.53143472294391 -52.263082063089755 0 0 0
280 0 7 1.575 16.439678272895236 17.173919442760607 -52.43789156027349 0 0 0
274 0 8 -1.05 13.196606620663053 20.488706662568415 -51.146942604848384 0 0 0
275 0 8 -1.05 15.463929824302022 18.605741553847537 -51.37606154880021 0 0 0
278 0 7 1.575 15.448324450202689 20.614889298532127 -51.21084568343 0 0 0
271 0 6 1.05 13.995146588000262 19.164093395383553 -52.836958338846514 0 0 0
337 0 8 -1.05 14.858607444896931 24.749188240227845 -53.2875314796832 0 0 0
339 0 8 -1.05 15.13937045569789 22.550735870370147 -51.08052327056638 0 0 0
279 0 8 -1.05 15.17698265136716 20.744321957255018 -53.112652172227016 0 0 0
333 0 8 -1.05 12.712491930279876 24.7160118647999 -51.099113374756335 0 0 0
335 0 8 -1.05 13.090485970928437 22.743321287327948 -53.06156664106052 0 0 0
334 0 7 1.575 12.839198231092588 24.67528334318408 -53.12015797312984 0 0 0
270 0 8 -1.05 12.851033173696365 18.04531609673638 -53.91861089867641 0 0 0
338 0 7 1.575 15.07633744253082 22.739048565391894 -53.09520866655724 0 0 0
346 0 8 -1.05 19.150627260556526 22.728687291472855 -50.542352152901536 0 0 0
294 0 8 -1.05 21.096003161107387 20.2055203583311 -50.83355519478175 0 0 0
345 0 8 -1.05 17.308403713408318 24.691308194034075 -51.33582326403936 0 0 0
295 0 8 -1.05 23.159374198890298 18.276322766163474 -50.960468925028316 0 0 0
349 0 7 1.575 19.252348677863193 24.45792412230338 -51.38408400036357 0 0 0
298 0 6 1.05 23.18031626215217 20.291061168519025 -51.40936874676758 0 0 0
342 0 6 1.05 17.138010648000918 24.643812878033952 -53.38531653043486 0 0 0
291 0 7 1.575 21.165320981795368 18.212404169525932 -51.25330823417385 0 0 0
357 0 8 -1.05 23.191668328847125 24.379355570809487 -53.08019723266685 0 0 0
359 0 8 -1.05 23.444542098718948 22.071724022416387 -50.40863864085203 0 0 0
299 0 8 -1.05 23.577123497683054 20.388809183386623 -53.32145629739904 0 0 0
353 0 8 -1.05 21.151716362717632 24.54816550570965 -50.74145128373722 0 0 0
284 0 8 -1.05 17.310799250036897 18.498422085264725 -53.563247307369316 0 0 0
350 0 8 -1.05 19.17123699762275 24.710699330584017 -53.29719686516721 0 0 0
355 0 8 -1.05 21.047376419433185 22.432347189140746 -52.76954812559355 0 0 0
286 0 8 -1.05 17.980571444942036 20.46095741417578 -51.5093529913125 0 0 0
287 0 6 1.05 19.135582612224493 17.84853222884044 -53.97214946647169 0 0 0
354 0 6 1.05 21.214695960489816 24.4752086266905 -53.28253414634187 0 0 0
283 0 6 1.05 17.153259785439356 20.55985102357247 -53.51649953830737 0 0 0
358 0 6 1.05 23.188198928118943 22.37253580349213 -53.33123385910241 0 0 0
351 0 7 1.575 19.780404918724862 21.36787564137828 -51.788987607013276 0 0 0
290 0 8 -1.05 20.904845439371144 18.172961078529838 -53.13502391056596 0 0 0
288 0 8 -1.05 19.25962291591866 18.074295767524028 -50.619645463081206 0 0 0
282 0 8 -1.05 15.879094103746676 20.396385020340276 -49.33684455773832 0 0 0
341 0 8 -1.05 16.905873356831528 22.64033205083483 -53.69323128483309 0 0 0
300 0 7 1.575 24.438946707612637 17.21873504417589 -52.11714185080431 0 0 0
5 0 7 1.575 1.0868413987328993 2.2956030180237765 -51.118062147283666 0 0 0
416 0 7 1.575 7.384760110646705 4.495498111777332 -48.04511817881723 0 0 0
76 0 7 1.575 5.365230137074271 6.479899747432984 -49.95653869264644 0 0 0
368 0 6 1.05 2.106563380339279 3.4381347988913324 -46.822306165378734 0 0 0
415 0 6 1.05 6.451173824838652 7.624704001990931 -46.75598030595987 0 0 0
68 0 6 1.05 2.5977408529519534 5.9275282634131825 -48.77672865289203 0 0 0
63 0 6 1.05 25.19088622788315 7.530837654050681 -49.06364853032383 -1 0 0
12 0 7 1.575 4.351599775295689 3.219995270861736 -48.77523717568751 0 0 0
17 0 6 1.05 6.41445900761188 1.0618786914429308 -49.026730494226726 0 0 0
361 0 7 1.575 25.439654380672092 1.4251802293274176 -46.67383205022578 -1 0 0
408 0 7 1.575 4.457787402537567 5.2784934820210845 -46.61467787619003 0 0 0
371 0 8 -1.05 4.221524060913309 3.256948450088253 -46.663814089657905 0 0 0
411 0 8 -1.05 4.338350114794149 7.53381787280043 -46.55460437315138 0 0 0
64 0 8 -1.05 25.10244421008364 6.409456580567755 -47.2994444196484 -1 0 0
80 0 8 -1.05 6.5293830567957505 7.702723742794777 -48.796012596371725 0 0 0
72 0 8 -1.05 4.461738606989332 5.189432110432171 -48.585528154185184 0 0 0
365 0 8 -1.05 2.199505608868522 1.3091193124850855 -46.495596901659916 0 0 0
16 0 8 -1.05 6.329265407469001 3.0278497950880654 -48.73036416366127 0 0 0
406 0 8 -1.05 2.473156036706027 5.393666253651597 -46.67135686787067 0 0 0
412 0 8 -1.05 6.428344336895219 5.4909407108686015 -46.61533104823454 0 0 0
67 0 8 -1.05 1.7509862789998536 7.681691728517986 -47.990375412259255 0 0 0
13 0 8 -1.05 4.28541507164579 1.2069338043194997 -48.462838491085684 0 0 0
364 0 8 -1.05 0.04693385813799168 3.422467383647544 -46.69399781559302 0 0 0
9 0 8 -1.05 2.363887333722164 3.0384076970823504 -48.7880625567713 0 0 0
373 0 8 -1.05 6.364640460219831 0.986553633905536 -46.36305564902946 0 0 0
404 0 8 -1.05 0.4150639442883314 8.457731888848665 -45.62389710374216 0 0 0
1 0 8 -1.05 0.23282710063619985 1.1446257499215073 -48.58852050652618 0 0 0
372 0 7 1.575 4.394566353088132 1.274521135560227 -46.512310199074626 0 0 0
405 0 7 1.575 1.2391645369548412 6.787583491379962 -46.25231325030652 0 0 0
369 0 7 1.575 2.2843379113293336 1.0117083163634215 -48.69153677905278 0 0 0
663 0 7 1.575 3.430191634232461 4.363520360004682 -43.47748370024554 0 0 0
414 0 6 1.05 6.545196816700035 5.36556828033634 -44.58775706046945 0 0 0
362 0 6 1.05 0.08980934551597634 3.571032250695441 -44.693541433606576 0 0 0
409 0 7 1.575 4.456401633734941 7.517988915137209 -44.578117483996714 0 0 0
367 0 7 1.575 2.17249679302745 1.3361799446849811 -44.49781175751244 0 0 0
366 0 8 -1.05 2.1250432633643412 3.2987908970853472 -44.35361053782707 0 0 0
410 0 8 -1.05 4.485426416430442 5.505283863981811 -44.570084156990724 0 0 0
407 0 8 -1.05 2.463058261633015 7.501376427270308 -44.27757443830476 0 0 0
363 0 8 -1.05 0.18545133575095055 1.4261183049891182 -44.564506933773565 0 0 0
374 0 8 -1.05 6.7235593613153055 3.2379123711954345 -44.272903198271194 0 0 0
413 0 8 -1.05 6.424116128355695 7.4733418081783745 -44.424944499544445 0 0 0
370 0 8 -1.05 4.280813900862882 1.2224124808735335 -44.41058588631897 0 0 0
403 0 8 -1.05 25.34014073922383 5.762310485222262 -44.4765946796305 -1 0 0
626 0 7 1.575 6.6777667380302494 1.2148769498925869 -44.444228452513265 0 0 0
418 0 8 -1.05 8.57347235093347 7.822297121749808 -46.70503916292183 0 0 0
21 0 8 -1.05 8.562044326389112 1.0789971179661382 -48.81933208422436 0 0 0
25 0 7 1.575 9.620891213722064 2.2848189230807905 -49.91149768488135 0 0 0
382 0 6 1.05 10.62049816605314 3.4107659106942214 -46.77919418195267 0 0 0
88 0 7 1.575 10.7135335531995 5.560000312777798 -48.90701212730126 0 0 0
83 0 7 1.575 8.550542171838982 7.650772298830269 -48.83945313418094 0 0 0
375 0 6 1.05 8.503646636615384 1.2979324416581302 -46.83207813967036 0 0 0
84 0 8 -1.05 8.83533036499888 5.694008807530234 -48.45073985658993 0 0 0
379 0 8 -1.05 10.65399983487991 1.274325623454203 -46.65257456185573 0 0 0
420 0 8 -1.05 10.906619256216302 5.451378105103445 -46.33203195303669 0 0 0
87 0 8 -1.05 10.63214006322751 7.562916733319701 -48.71701474263748 0 0 0
378 0 8 -1.05 8.53171091128982 3.407709937618398 -46.70331951454448 0 0 0
29 0 8 -1.05 10.705627785127875 3.5098680265715267 -48.81045762315582 0 0 0
419 0 7 1.575 9.563664536659418 6.5961050122531395 -45.65198915777728 0 0 0
383 0 7 1.575 11.647639608254126 0.1953767102557304 -47.925903723254244 0 0 0
417 0 8 -1.05 8.654049213034984 5.3746501658002375 -44.383633219980574 0 0 0
677 0 7 1.575 11.63471583603576 4.5959578810140025 -43.76823591592513 0 0 0
376 0 7 1.575 8.607968302134251 3.4099599737595803 -44.778747507694966 0 0 0
381 0 7 1.575 10.615468273535846 1.1461380430798862 -44.668394158443256 0 0 0
380 0 8 -1.05 10.574423127829327 3.2238389617268877 -44.579917168527466 0 0 0
421 0 8 -1.05 10.784363858635164 7.726486319066234 -44.48665558939685 0 0 0
377 0 8 -1.05 8.625267615318837 1.4026653014005277 -44.65277821601832 0 0 0
430 0 7 1.575 15.985063253830054 4.483178431012533 -48.02514739608847 0 0 0
96 0 7 1.575 13.813673031184717 6.6305560465393185 -49.93624045876583 0 0 0
429 0 7 1.575 14.91898830618028 7.713260301658114 -46.84772818455492 0 0 0
32 0 7 1.575 12.69826492419986 3.460776728431679 -48.91278236791476 0 0 0
37 0 7 1.575 14.838357423727679 1.3558500559668045 -49.04269820958896 0 0 0
422 0 6 1.05 12.900131307265031 5.486445242561057 -46.74448242582419 0 0 0
385 0 8 -1.05 12.696842315561888 3.436022218524759 -46.84996068610047 0 0 0
425 0 8 -1.05 12.928415061012283 7.665582322862114 -46.499654308282885 0 0 0
100 0 8 -1.05 14.891828949448074 7.74344817401238 -48.77113862535197 0 0 0
92 0 8 -1.05 12.688717401695872 5.505123066363251 -48.777812922908495 0 0 0
36 0 8 -1.05 14.671428816947383 3.3450134458095793 -48.829945271065334 0 0 0
426 0 8 -1.05 14.948668027267809 5.684760290737663 -46.85174265474438 0 0 0
33 0 8 -1.05 12.822837846311028 1.4051403812279857 -48.834203355072226 0 0 0
387 0 8 -1.05 14.950019243795625 1.1185227791299446 -46.99462098540707 0 0 0
386 0 7 1.575 13.627634738544693 2.036069829990412 -46.006233110748184 0 0 0
428 0 6 1.05 15.366656996405005 5.874176228705362 -44.97718369614297 0 0 0
423 0 7 1.575 12.856661706226229 7.61388759888481 -44.50631686205541 0 0 0
424 0 8 -1.05 13.23128833962 5.5555010015971655 -44.345208849782644 0 0 0
388 0 8 -1.05 14.608980272996513 2.800790843776711 -44.53779358451666 0 0 0
427 0 8 -1.05 14.849165814632217 7.7207903441030705 -44.46923192246007 0 0 0
384 0 8 -1.05 12.649854438452655 0.9095976518439165 -44.75167385509784 0 0 0
640 0 7 1.575 16.110967497192302 25.22849334966328 -43.76562719540727 0 -1 0
397 0 7 1.575 19.851402084647194 0.20816207034675008 -48.05194607946292 0 0 0
433 0 7 1.575 18.83624132608269 7.5062221600573205 -46.46724416661544 0 0 0
400 0 7 1.575 22.285348516680685 2.4845724616917093 -45.76253424689069 0 0 0
401 0 8 -1.05 23.48096373922179 1.23215406732573 -46.55767262098606 0 0 0
49 0 8 -1.05 19.088218542031743 3.443046864902865 -48.772774970685774 0 0 0
392 0 8 -1.05 16.957477640790046 3.357826891748434 -46.741553879047196 0 0 0
53 0 8 -1.05 21.413740659345844 1.1522135918473422 -48.69286070340878 0 0 0
107 0 8 -1.05 19.03321765507855 7.593506756654554 -48.444323221673926 0 0 0
440 0 8 -1.05 22.975209376956535 5.328215550388034 -46.45422314229607 0 0 0
434 0 8 -1.05 19.109782434309302 5.4961107646900675 -46.61320053673745 0 0 0
56 0 8 -1.05 23.24941365757959 3.2823960336871463 -48.58207979447236 0 0 0
393 0 8 -1.05 18.991557586838546 1.4144714456147052 -46.71867289961535 0 0 0
112 0 8 -1.05 21.17356706933047 5.615163040357828 -48.69436252457254 0 0 0
120 0 8 -1.05 22.983079047091184 7.839009494603497 -48.707739986716916 0 0 0
104 0 8 -1.05 17.041318918184288 5.721180149031723 -49.00654728295755 0 0 0
439 0 8 -1.05 21.04845184185264 7.485738436697671 -46.62307251982717 0 0 0
399 0 8 -1.05 20.920489700927604 3.5258794739173602 -46.623731888715376 0 0 0
436 0 7 1.575 21.079669520798983 5.489029692253826 -46.729522415979424 0 0 0
389 0 6 1.05 16.977352702441166 1.2557019709536457 -47.03066710940947 0 0 0
57 0 6 1.05 23.50569515022672 1.2697934714924581 -48.83543792372677 0 0 0
52 0 6 1.05 21.230988282931943 3.24916599967824 -48.70385731678386 0 0 0
103 0 6 1.05 17.01656410045425 7.7695412605056395 -49.05768506619014 0 0 0
108 0 6 1.05 19.075741426570367 5.535880339862557 -48.95641658818287 0 0 0
443 0 6 1.05 23.383062903135407 7.479107646650802 -46.72612889315031 0 0 0
396 0 7 1.575 18.93797401938119 3.476339918230401 -46.80170148050963 0 0 0
116 0 7 1.575 22.38546155078088 6.372180074043846 -50.13844378975297 0 0 0
444 0 7 1.575 24.31854102780363 4.697786306968804 -47.881960018272764 0 0 0
45 0 7 1.575 18.172333634059942 2.3578380438003945 -50.196758818462214 0 0 0
41 0 8 -1.05 16.823943372487843 1.3172992639042258 -49.017201163704456 0 0 0
432 0 8 -1.05 16.88082796009492 7.797957451139582 -46.5399708876171 0 0 0
654 0 7 1.575 24.51926933163931 0.1970033877722501 -43.58024795333308 0 0 0
398 0 8 -1.05 21.06713761690462 1.4813506467988327 -44.58071064935344 0 0 0
441 0 8 -1.05 23.277439734773445 7.468628905395716 -44.49721904640991 0 0 0
402 0 8 -1.05 23.400065745188105 3.484241604334104 -44.42153949806871 0 0 0
391 0 8 -1.05 17.080374321694524 1.5043659700182235 -43.473263251656036 0 0 0
435 0 8 -1.05 19.179712152918754 7.6978626337783185 -44.4112006157102 0 0 0
438 0 8 -1.05 21.26894914062943 5.542298032654609 -44.40545287735023 0 0 0
394 0 8 -1.05 18.869704076191635 3.226567588806528 -44.63048609451045 0 0 0
395 0 7 1.575 19.019644976256828 1.2485940701670473 -44.7785439078892 0 0 0
437 0 6 1.05 21.25094262458549 7.668648916663908 -44.60228367081835 0 0 0
390 0 6 1.05 16.69810882902281 3.0011943300097346 -44.796869106555704 0 0 0
442 0 7 1.575 23.293249029527338 5.480046036438432 -44.542482760258515 0 0 0
691 0 7 1.575 20.005452122115752 4.3747834765995375 -43.56506825561829 0 0 0
431 0 8 -1.05 16.38082073325444 4.683792622623302 -43.80083733791347 0 0 0
453 0 7 1.575 3.454127561651522 8.637297711330074 -48.04674267387995 0 0 0
457 0 8 -1.05 6.656410700779971 9.690061438389664 -46.402318650092326 0 0 0
125 0 7 1.575 1.1894254789452383 10.832253559041797 -50.108622336621046 0 0 0
452 0 7 1.575 2.3076238757552345 11.945529655710429 -46.98557933654044 0 0 0
132 0 7 1.575 4.3791190950223955 11.912168569961619 -49.26379802249975 0 0 0
137 0 6 1.05 6.401589919162247 9.756611470355994 -49.136900122852474 0 0 0
445 0 7 1.575 0.2617528619236375 9.747768357747583 -47.06811760253231 0 0 0
455 0 8 -1.05 3.9161140673907204 12.021669244120288 -45.80073779178682 0 0 0
449 0 8 -1.05 2.2312420081207343 10.016473870876133 -46.77864685983886 0 0 0
136 0 8 -1.05 6.4088713746497925 11.944954266936021 -48.88829030049211 0 0 0
133 0 8 -1.05 4.519569258194561 10.200054923264254 -48.32102065714758 0 0 0
448 0 8 -1.05 0.25106373948805355 11.768646738133588 -46.882992908831 0 0 0
129 0 8 -1.05 2.3702660006359166 11.911490714566762 -48.90735926114381 0 0 0
121 0 8 -1.05 25.37741913517325 9.709189033432235 -48.94398525549689 -1 0 0
456 0 7 1.575 5.352071600851857 10.768607031472932 -45.58576984956217 0 0 0
710 0 7 1.575 7.554800421277284 8.69993389845693 -43.50064676643551 0 0 0
454 0 8 -1.05 4.367302806700976 9.530829623843857 -44.41323285965786 0 0 0