LAMMPS data file via write_data, version 17 Feb 2022, timestep = 332

4356 atoms
10 atom types
72 bonds
6 bond types
108 angles
6 angle types
0 dihedrals
2 dihedral types
18 impropers
2 improper types

0 25.44 xlo xhi
0 25.44 ylo yhi
-64.778423 32.908 zlo zhi

Masses

1 12.011
2 1.008
3 15.9994
4 15.9994
5 1.008
6 55.845
7 55.845
8 15.9994
9 15.9994
10 1.008

Pair Coeffs # lj/cut/coul/long

1 0.0988 3.31521
2 0.0161 2.4473
3 0.1463 3.04812
4 0.093 3.24287
5 0.0047 0.537925
6 9.0298e-07 4.9062
7 9.0298e-07 4.9062
8 0.1554 3.16554
9 0.1554 3.16554
10 0 0

Bond Coeffs # harmonic

1 361.8 1.105
2 652.57 1.218
3 383.13 1.351
4 563.51 0.973
5 554.135 1
6 0 2.08

Angle Coeffs # harmonic

1 51.617 106.55
2 65.93 123.65
3 65.262 109.49
4 115.745 122.1
5 118.817 130.25
6 30 109.47

Dihedral Coeffs # fourier

1 1 2.3 2 180
2 2 2.3 2 180 1.9 1 0

Improper Coeffs # cvff

1 10.5 -1 2
2 10.5 -1 2

Atoms # full

71 0 7 1.575 3.097963119072401 4.315356378571177 -52.68360723080702 0 0 0
78 0 6 1.05 7.482536425267088 5.760263729955803 -54.29204120977568 0 0 0
3 0 6 1.05 25.287766325387054 3.0575691875503446 -53.48234761129592 -1 0 0
74 0 6 1.05 3.8513471076625136 7.452286042529322 -54.09826255233917 0 0 0
7 0 6 1.05 2.1404248360098808 1.2218260945186183 -53.52560685125553 0 0 0
6 0 8 -1.05 1.8604635711805635 3.188500547538311 -53.55259581841198 0 0 0
75 0 8 -1.05 4.346235487051935 5.669580678602763 -53.21170276713088 0 0 0
70 0 8 -1.05 2.1025719425379057 7.492693009151175 -53.18403822358303 0 0 0
4 0 8 -1.05 0.08083490069001108 0.9995867605708842 -52.964633393588784 0 0 0
73 0 8 -1.05 4.279235395067757 7.561149102164754 -50.918203012092356 0 0 0
19 0 8 -1.05 6.963862785320059 3.8194357870517974 -53.73726202719605 0 0 0
79 0 8 -1.05 6.154495114626706 4.991407793515496 -50.940333054942826 0 0 0
77 0 8 -1.05 6.7321272354222215 7.231932068518952 -53.16394217004419 0 0 0
5 0 7 1.575 0.23499020586858932 1.4160305061571261 -50.979577687909256 0 0 0
76 0 7 1.575 5.496794759324846 6.5095785194763325 -51.92795984491161 0 0 0
11 0 6 1.05 4.306496678784041 1.216841802859416 -51.45684671007416 0 0 0
68 0 6 1.05 2.1905876319984587 5.196825452767873 -49.29510018149117 0 0 0
63 0 6 1.05 24.596322719957126 6.922954620392862 -49.655912174242495 -1 0 0
62 0 7 1.575 0.19701217151240397 5.403719339727097 -51.81908677083424 0 0 0
12 0 7 1.575 4.708151405415723 4.0905264033620234 -49.793118753891065 0 0 0
17 0 6 1.05 6.45787977393924 1.0750713801201939 -49.57244488566987 0 0 0
18 0 7 1.575 6.367126374139699 3.2792342510117503 -52.00911938123936 0 0 0
69 0 7 1.575 2.2128149770117886 7.5252870083929855 -51.23553407886977 0 0 0
15 0 8 -1.05 6.433366709656305 1.3823552284357652 -51.527007127320466 0 0 0
64 0 8 -1.05 0.2994356151409056 5.6778470087457436 -48.51807024760078 0 0 0
65 0 8 -1.05 0.1855681560470338 7.388059373851908 -51.269728284525456 0 0 0
16 0 8 -1.05 6.065135944550332 3.2401972766492952 -48.652267057195445 0 0 0
14 0 8 -1.05 4.330808856264388 3.2778587989200028 -51.51025816829075 0 0 0
67 0 8 -1.05 2.3375265698322902 7.353152337505774 -49.11264334685506 0 0 0
13 0 8 -1.05 4.443787359004634 1.1519377936794513 -49.05751189241753 0 0 0
66 0 8 -1.05 2.1190938882151165 5.377850729384599 -51.292982957287066 0 0 0
8 0 8 -1.05 2.1951538361545326 1.0384944890483363 -50.90866540443913 0 0 0
10 0 8 -1.05 4.092957653615047 0.9510106476190368 -53.428895041960516 0 0 0
61 0 8 -1.05 24.922646231978273 5.038492172751861 -53.54522725172743 -1 0 0
2 0 8 -1.05 25.42992181369207 3.363152928076797 -51.29194367396812 -1 0 0
20 0 7 1.575 7.602498117656532 0.0795088453061218 -52.581382384455786 0 0 0
81 0 8 -1.05 9.093967504125624 5.252638742331358 -53.26972206397242 0 0 0
22 0 8 -1.05 8.365792421399638 3.3650151108254116 -51.37279601559658 0 0 0
91 0 7 1.575 11.596626193939935 4.547999424447627 -52.32185286192321 0 0 0
23 0 7 1.575 8.843257808459963 3.335316019891413 -53.379201691855656 0 0 0
27 0 7 1.575 10.820691747270002 1.1938093596830115 -53.199661990091094 0 0 0
26 0 8 -1.05 10.781033420907079 3.116995379967825 -53.298504407490576 0 0 0
90 0 8 -1.05 10.782404599076484 7.832908967677086 -53.25018764007396 0 0 0
24 0 8 -1.05 8.819864779290029 1.3626818179616838 -53.35080200804735 0 0 0
25 0 7 1.575 9.508126003045055 2.342806540258735 -50.197643416678524 0 0 0
88 0 7 1.575 10.58415538352591 5.511158430228336 -48.98266870192711 0 0 0
83 0 7 1.575 8.43086318599965 7.612621652361302 -49.00700819353134 0 0 0
82 0 6 1.05 8.600047690054216 5.545458056593371 -51.322477339452014 0 0 0
89 0 6 1.05 10.586509448323005 7.609921989152659 -51.24245278889394 0 0 0
84 0 8 -1.05 8.574252834046312 5.594798118106597 -48.92247766690856 0 0 0
85 0 8 -1.05 8.46177738579395 7.6098594333997704 -50.96836127250211 0 0 0
87 0 8 -1.05 10.497209682083469 7.506437731748709 -48.86621522311227 0 0 0
86 0 8 -1.05 10.616944109322565 5.511412110395022 -50.9310181084471 0 0 0
28 0 8 -1.05 10.691058442808846 1.1958748354710063 -51.17208526389954 0 0 0
98 0 7 1.575 14.811970257566571 5.439150344269484 -53.200848251954056 0 0 0
94 0 7 1.575 12.75347457761141 7.631499775884295 -53.19095835013464 0 0 0
95 0 8 -1.05 12.865565766020628 5.627655885765755 -53.24171146479042 0 0 0
93 0 8 -1.05 12.688194834122186 7.6797698577003555 -51.16711894398241 0 0 0
39 0 8 -1.05 14.910875165619476 3.325071143652083 -53.17207149106302 0 0 0
99 0 8 -1.05 14.886301987472438 5.53010951790381 -51.13894129731406 0 0 0
97 0 8 -1.05 14.747999031735398 7.440360519197072 -53.24343224520611 0 0 0
96 0 7 1.575 13.756358589661712 6.608092911647485 -50.03581370672486 0 0 0
31 0 6 1.05 12.720824973980323 1.3034358259994356 -51.105240123071994 0 0 0
32 0 7 1.575 12.638650863724536 3.417582875416982 -49.059767207652826 0 0 0
37 0 7 1.575 14.930254465768314 1.3296441762889977 -49.14812671208025 0 0 0
38 0 6 1.05 14.726480894373323 3.472510718117373 -51.12868818470123 0 0 0
35 0 8 -1.05 14.798500513015904 1.3643040778424604 -51.10334227617431 0 0 0
36 0 8 -1.05 14.644175736491656 3.3210070121085637 -49.00231605734723 0 0 0
34 0 8 -1.05 12.650781387646713 3.4174784866898706 -51.021324282920645 0 0 0
33 0 8 -1.05 12.850554418620355 1.3467327133089089 -48.9674661545284 0 0 0
30 0 8 -1.05 12.909627633769395 1.0561956461554345 -53.18459276336446 0 0 0
40 0 7 1.575 14.872486830968155 1.317282847583897 -53.09192430543757 0 0 0
60 0 7 1.575 0.1326551300305281 24.42575690077286 -53.0792474787894 1 -1 0
50 0 8 -1.05 21.169139394836737 0.3928268076496939 -52.75156608806389 0 0 0
48 0 8 -1.05 18.569738152120983 24.553463780033592 -48.34431295057615 0 -1 0
106 0 8 -1.05 18.947998049193142 5.6475235005131195 -51.168292339913705 0 0 0
53 0 8 -1.05 21.312941217489247 1.5842256958305814 -48.17558825281345 0 0 0
107 0 8 -1.05 19.11696336469176 7.595903005560553 -48.7061629078359 0 0 0
54 0 8 -1.05 21.535418936020925 4.156032949571898 -51.13581348929039 0 0 0
56 0 8 -1.05 23.325919885357916 3.3211144737154483 -49.0455275934361 0 0 0
105 0 8 -1.05 17.034733526767575 7.63899492343177 -51.15389549260465 0 0 0
104 0 8 -1.05 17.034300434838272 5.704227388761637 -49.15613680934365 0 0 0
55 0 8 -1.05 23.68036137997658 1.2904926031622466 -50.889585092491366 0 0 0
109 0 7 1.575 19.0286973062075 7.630004727845703 -51.33175213897607 0 0 0
58 0 7 1.575 23.427677915825456 3.4171676701852087 -51.10049458737318 0 0 0
57 0 6 1.05 23.198812224156324 1.2098557627699833 -48.943915870678694 0 0 0
52 0 6 1.05 21.252775940937802 3.566990305386595 -49.182039872684534 0 0 0
102 0 7 1.575 16.906357535682943 5.602487682465414 -51.1790424234176 0 0 0
103 0 6 1.05 17.01118494553009 7.772550568512152 -49.072066377396595 0 0 0
108 0 6 1.05 19.073981504244454 5.551656452863814 -49.109810273070764 0 0 0
51 0 7 1.575 23.048783540868534 0.8650987294063475 -52.7034726342924 0 0 0
116 0 7 1.575 22.16089394243562 6.111084671048849 -51.57345696442735 0 0 0
45 0 7 1.575 18.180944215661313 2.403471550362443 -50.40035978188472 0 0 0
117 0 8 -1.05 23.120396470284128 7.311526460603663 -52.874501820134604 0 0 0
119 0 8 -1.05 23.843152036542342 5.439163794263254 -50.869977462522336 0 0 0
59 0 8 -1.05 23.266382654813327 2.7784037466480322 -53.01315096312092 0 0 0
113 0 8 -1.05 20.99167883289408 7.4654965145356185 -50.848202797007524 0 0 0
44 0 8 -1.05 16.81992692355042 1.2365289159372939 -53.466979455827904 0 0 0
110 0 8 -1.05 19.206187945482906 7.784363985749817 -53.23682684913202 0 0 0
115 0 8 -1.05 21.26001043704709 5.59728072405099 -53.338476069933975 0 0 0
46 0 8 -1.05 18.959044378418554 2.9238221566002163 -52.26233013466181 0 0 0
47 0 6 1.05 18.807520928103553 1.0807363306936928 -52.97642401304322 0 0 0
114 0 6 1.05 21.16986442014935 7.704962725557787 -53.69882030162774 0 0 0
43 0 6 1.05 16.97508567280854 3.2868725579048585 -53.057859094100074 0 0 0
118 0 6 1.05 23.179328935517542 5.6651210205121165 -54.14745164676728 0 0 0
111 0 7 1.575 20.00517498847078 4.514109203817346 -52.3395016501612 0 0 0
42 0 8 -1.05 16.77391456261098 3.5948675328571826 -50.936785819410176 0 0 0
101 0 8 -1.05 16.76764481231316 5.278801307736886 -53.11050779040501 0 0 0
140 0 7 1.575 7.5900707396078255 8.750529950150465 -52.34144007918383 0 0 0
128 0 8 -1.05 2.3385378489373387 9.486187809897311 -51.104521356426304 0 0 0
130 0 8 -1.05 4.199360283247265 9.193868647726429 -53.20113818886119 0 0 0
123 0 7 1.575 0.12343846043731027 11.776091599261889 -53.093768340004935 0 0 0
127 0 6 1.05 2.1412159984406105 9.615307247767609 -53.27700467581535 0 0 0
126 0 8 -1.05 2.0833202175456713 11.647633652389283 -53.128885629198535 0 0 0
124 0 8 -1.05 0.11005436057621516 9.80998630422184 -53.25823047200491 0 0 0
139 0 8 -1.05 6.588872839575423 12.056122371575421 -53.14530547260815 0 0 0
125 0 7 1.575 1.1856508662119742 10.591911191481403 -50.049644619655325 0 0 0
131 0 7 1.575 4.350301074897092 9.714811844277586 -51.34511104774088 0 0 0
132 0 7 1.575 4.338006474001743 11.708640207218526 -49.02772198587838 0 0 0
137 0 6 1.05 6.510007699373369 9.750504684518486 -49.10440999277359 0 0 0
138 0 6 1.05 6.411092800016947 11.843260427999038 -51.14680601149217 0 0 0
135 0 8 -1.05 6.349536871957439 9.674524213661803 -51.157321121275956 0 0 0
136 0 8 -1.05 6.333034924447902 11.770986194320704 -48.89286043367225 0 0 0
134 0 8 -1.05 4.294949533985561 11.706519572428396 -51.024937142589465 0 0 0
133 0 8 -1.05 4.440507383315172 9.697134465408865 -49.127052578305175 0 0 0
122 0 8 -1.05 0.03746465660409905 11.742684250696895 -51.03677560536965 0 0 0
191 0 7 1.575 3.2651964549854613 12.87450289573707 -52.30329577205714 0 0 0
198 0 7 1.575 6.414782968711942 14.032776582373376 -53.04704411909496 0 0 0
194 0 6 1.05 4.354807744578671 16.159707877053297 -53.60218598106852 0 0 0
195 0 8 -1.05 4.454199439321187 14.12996681557839 -53.08385202867496 0 0 0
190 0 8 -1.05 2.3134666182288544 16.3288181844992 -53.22029334934529 0 0 0
193 0 8 -1.05 3.8133589285108083 16.1271763744801 -50.20470999458964 0 0 0
199 0 8 -1.05 6.447956889986242 13.96169837250485 -50.996885204102625 0 0 0
197 0 8 -1.05 6.3455910207540525 15.987014443766068 -53.122728874771816 0 0 0
196 0 7 1.575 5.298169451211573 14.969569971009243 -49.867290628957484 0 0 0
188 0 6 1.05 2.26107964494573 13.90067319271523 -49.10833465104982 0 0 0
183 0 7 1.575 0.09000828955654672 16.01671632489402 -48.84146136228284 0 0 0
182 0 6 1.05 0.15169770888779294 13.865565961697426 -51.074917674776906 0 0 0
189 0 7 1.575 2.1932956293588592 15.988370335124648 -51.357542510119664 0 0 0
184 0 8 -1.05 0.17782826414650524 14.034347680626906 -48.89463518299034 0 0 0
185 0 8 -1.05 0.2807831194405963 16.08456663729511 -50.81791214762937 0 0 0
187 0 8 -1.05 2.0344249286644214 15.65687446085762 -47.96708571771256 0 0 0
186 0 8 -1.05 2.244533123496025 14.034103599919915 -51.08911908495545 0 0 0
181 0 8 -1.05 0.011784194715509129 13.747170439460337 -53.074453383899915 0 0 0
142 0 8 -1.05 8.506086089010779 11.89323706652377 -51.07716532247321 0 0 0
148 0 8 -1.05 10.691581921972407 9.70923542706266 -51.151430685225314 0 0 0
143 0 7 1.575 8.565532135750988 11.926919850817365 -53.12328409927696 0 0 0
147 0 7 1.575 10.698984870316368 9.812864377534499 -53.18570055910613 0 0 0
146 0 8 -1.05 10.557170971583474 11.791674371715443 -53.14195963715388 0 0 0
144 0 8 -1.05 8.717550040094817 9.945830782799334 -53.27696716531031 0 0 0
145 0 7 1.575 9.636262549433651 10.800854466134854 -50.01935982358675 0 0 0
201 0 8 -1.05 8.395657616923653 13.879203320646138 -53.10087412892814 0 0 0
211 0 7 1.575 11.790201989005757 12.998216042153091 -52.3409184159491 0 0 0
210 0 8 -1.05 10.97879727901713 16.286126120102114 -53.3250790319183 0 0 0
208 0 7 1.575 10.714339162169185 13.971948888045706 -49.11595088863222 0 0 0
203 0 6 1.05 8.51866236292697 16.047620522518333 -49.01582431931834 0 0 0
202 0 6 1.05 8.534793776908636 14.015987806728587 -51.105471252453604 0 0 0
209 0 7 1.575 10.617920359649972 16.11085074295268 -51.4762632192588 0 0 0
204 0 8 -1.05 8.746681930861104 13.982962078158643 -48.92779717393387 0 0 0
205 0 8 -1.05 8.696296722064563 16.131034164466946 -51.02790370648137 0 0 0
207 0 8 -1.05 10.65075378152448 15.894343433901218 -48.58360387407762 0 0 0
206 0 8 -1.05 10.73770681896677 14.148002122185527 -51.043883590486615 0 0 0
160 0 7 1.575 15.87799117349087 8.743749990322579 -52.40662205182833 0 0 0
150 0 8 -1.05 12.648846957128752 9.592193552584678 -53.24438100314963 0 0 0
159 0 8 -1.05 15.081066774747423 12.002548922286918 -53.08397284189512 0 0 0
151 0 6 1.05 12.804316342786398 9.794022660950185 -51.234399908627 0 0 0
152 0 7 1.575 12.75879451756721 11.844043851175984 -49.03464970753777 0 0 0
157 0 6 1.05 14.865521072929916 9.72547801874624 -49.11640665797181 0 0 0
158 0 7 1.575 14.905522170541357 11.886324333086545 -51.1785596399539 0 0 0
155 0 8 -1.05 14.896606609080107 9.85304342147095 -51.12370967552402 0 0 0
156 0 8 -1.05 14.726279808028615 11.7617863129081 -49.03832669363484 0 0 0
154 0 8 -1.05 12.844422726799671 11.954742092536955 -51.00757664212562 0 0 0
153 0 8 -1.05 12.751506345405996 9.860713160383305 -48.93814307428006 0 0 0
218 0 6 1.05 14.966835762607051 14.027764438762864 -53.53485044489312 0 0 0
214 0 7 1.575 12.951197555205942 16.177452631839085 -53.22297366598601 0 0 0
215 0 8 -1.05 12.962047337995852 14.219259352602231 -53.18819323447366 0 0 0
213 0 8 -1.05 12.683004020658625 16.1778589924573 -51.12548353942488 0 0 0
219 0 8 -1.05 15.144916951630634 13.84831511036607 -50.79191741872435 0 0 0
217 0 8 -1.05 14.899710720548233 16.080900698776475 -53.06492109797686 0 0 0
216 0 7 1.575 13.857603820707544 15.061794042099995 -50.12257316701991 0 0 0
173 0 8 -1.05 21.331913128945764 9.767492881146893 -49.03693548543328 0 0 0
174 0 8 -1.05 21.16344985179151 11.859465983476413 -50.963321170483596 0 0 0
176 0 8 -1.05 23.193662900374495 11.688752850992381 -48.89698610031993 0 0 0
175 0 8 -1.05 23.371096222007658 9.595568707901515 -50.96757393105274 0 0 0
178 0 6 1.05 23.328937213226038 11.761438234961929 -51.194940000551306 0 0 0
177 0 7 1.575 23.357661563882452 9.720589162531073 -49.01636433057026 0 0 0
172 0 7 1.575 21.193385507061038 11.798945470963105 -49.01471205889921 0 0 0
171 0 6 1.05 21.3019578525612 9.816251137099371 -51.29954485255188 0 0 0
165 0 7 1.575 18.14500973486399 10.778514669394193 -50.05193095766692 0 0 0
179 0 8 -1.05 23.604491228286758 11.961565479937326 -53.16273631369843 0 0 0
164 0 8 -1.05 17.15193013657867 9.872529522792126 -53.27824155095167 0 0 0
166 0 8 -1.05 19.003873516374128 11.722980041562067 -53.12040293271054 0 0 0
167 0 7 1.575 19.124823176366426 9.780731926216795 -53.21995222235167 0 0 0
163 0 7 1.575 17.031713830810226 11.853163527906903 -53.20370483634279 0 0 0
170 0 8 -1.05 21.06123907787931 9.620497424205354 -53.27191379784744 0 0 0
168 0 8 -1.05 19.147949172320654 9.581161082484398 -51.15805302218535 0 0 0
162 0 8 -1.05 16.969916607329868 11.870325780023522 -51.09618024354298 0 0 0
180 0 7 1.575 24.412238538061523 8.64536414736138 -52.31796797500023 0 0 0
226 0 8 -1.05 19.101586694721956 14.092686382098465 -51.05381730365249 0 0 0
227 0 8 -1.05 19.004868078000932 16.04377388071941 -48.90476527064143 0 0 0
225 0 8 -1.05 17.17273468530015 16.219948995428936 -51.025503938671136 0 0 0
224 0 8 -1.05 17.15820271116998 14.207876549988095 -48.40896582594475 0 0 0
229 0 7 1.575 19.2276219287282 16.09183800146762 -51.18590170908273 0 0 0
222 0 6 1.05 17.071957128568496 14.16274409731158 -51.527161715147855 0 0 0
223 0 7 1.575 17.02737624211111 16.16895938227936 -49.08057395542155 0 0 0
228 0 6 1.05 19.17424963714659 13.974832389054917 -49.076312722978216 0 0 0
236 0 7 1.575 22.35707743595413 14.966795607269507 -50.01765070330861 0 0 0
237 0 8 -1.05 23.446333124778228 15.903259428241688 -52.990277170222704 0 0 0
239 0 8 -1.05 23.521404951214993 13.827184236929643 -50.9782962029242 0 0 0
233 0 8 -1.05 21.216321269714673 16.207683816871143 -50.8765287360616 0 0 0
230 0 8 -1.05 19.379629772692212 16.065433238336624 -53.089041310382626 0 0 0
235 0 8 -1.05 21.54375844710611 14.02904100527774 -53.08525936005248 0 0 0
234 0 6 1.05 21.420854082569 16.07394190896424 -53.236977081271384 0 0 0
238 0 7 1.575 23.48885837991188 13.936939485155655 -53.04992669872688 0 0 0
231 0 7 1.575 20.183812840895644 12.981864874132539 -52.30169441636508 0 0 0
221 0 8 -1.05 16.969618423880682 13.764686339361615 -53.44829507378279 0 0 0
260 0 7 1.575 7.509531354825815 17.182555979087983 -52.245416703923176 0 0 0
248 0 8 -1.05 2.1979168969090987 18.08097967252764 -51.0711528787384 0 0 0
250 0 8 -1.05 4.160487252646202 18.125573088415425 -53.01007912305639 0 0 0
311 0 7 1.575 3.3293833308877487 21.31208871134379 -52.24901853002151 0 0 0
318 0 6 1.05 6.398148876914811 22.362572161392585 -53.40853351452131 0 0 0
243 0 7 1.575 0.07697409675242763 20.37929616480176 -53.072396848601535 0 0 0
314 0 7 1.575 4.3342840467796995 24.480793358659483 -53.30606997772865 0 0 0
247 0 7 1.575 2.2195861871571796 18.280744824515587 -53.118904676249706 0 0 0
246 0 8 -1.05 2.037436834739808 20.255684526279403 -53.1569827413841 0 0 0
315 0 8 -1.05 4.305716064945653 22.563494054717392 -53.276473770055716 0 0 0
310 0 8 -1.05 2.1156766510188376 24.60541380200584 -53.08187022577827 0 0 0
244 0 8 -1.05 0.21649335022971128 18.400513658421968 -53.038059492829554 0 0 0
313 0 8 -1.05 4.2554689712138085 24.581911095703763 -51.229812954523005 0 0 0
259 0 8 -1.05 6.636609963436876 20.327004535070465 -53.14545402049276 0 0 0
319 0 8 -1.05 6.43976492665051 22.306057647274354 -51.07732229021599 0 0 0
317 0 8 -1.05 6.269655262209659 24.441000484850388 -53.373497070453084 0 0 0
245 0 7 1.575 1.144338446148948 19.207533333869083 -49.95024531103379 0 0 0
316 0 7 1.575 5.340112706248528 23.48079043306141 -50.09141772644632 0 0 0
251 0 6 1.05 4.3332998168876005 18.18587821675913 -51.01415412929554 0 0 0
308 0 6 1.05 2.31641654705579 22.3498510279189 -48.95085187132255 0 0 0
303 0 6 1.05 0.1399525830599918 24.559539104152382 -48.947751072434734 0 0 0
302 0 7 1.575 0.15305613351836442 22.3870413604923 -50.94666890963148 0 0 0
252 0 6 1.05 4.355546772776657 20.316817181682534 -48.96584358973394 0 0 0
257 0 7 1.575 6.504621198288325 18.177528951006753 -48.93331973381706 0 0 0
258 0 7 1.575 6.389165301061871 20.29691965084145 -51.22523558235744 0 0 0
309 0 7 1.575 2.3252017869059047 24.470746141534963 -51.1026718935084 0 0 0
255 0 8 -1.05 6.50162299647426 18.24694085801459 -50.90165156279744 0 0 0
304 0 8 -1.05 0.23022057735495854 22.506817579471754 -48.956145535634086 0 0 0
305 0 8 -1.05 0.32580026691925673 24.483723061850764 -51.0119579392198 0 0 0
256 0 8 -1.05 6.490481124962451 20.182726863070847 -48.95037622963829 0 0 0
254 0 8 -1.05 4.409878688570557 20.312234059266697 -50.98794860696672 0 0 0
307 0 8 -1.05 2.224727652519315 24.644593018188168 -48.78259029224186 0 0 0
253 0 8 -1.05 4.54215979485806 18.301158767995297 -48.772463130481476 0 0 0
306 0 8 -1.05 2.2343818356376426 22.498948765642155 -50.988009483882664 0 0 0
301 0 8 -1.05 0.08141748668093825 22.48207761061991 -52.926675589580746 0 0 0
242 0 8 -1.05 0.09526876152679792 20.425430210953383 -51.00829339030488 0 0 0
326 0 8 -1.05 10.669751659594555 22.435102754351572 -51.01239476010872 0 0 0
327 0 8 -1.05 10.505781263334548 24.472255094882364 -49.01504215271612 0 0 0
325 0 8 -1.05 8.491429701124074 24.613353475548188 -51.0719862659762 0 0 0
324 0 8 -1.05 8.65656513861759 22.568968450622727 -48.91140861088186 0 0 0
329 0 6 1.05 10.617392235944905 24.506483876400058 -51.22533829615511 0 0 0
322 0 6 1.05 8.509549180053872 22.529521680961327 -51.37180106443141 0 0 0
323 0 7 1.575 8.513928542343836 24.57522816814337 -49.10891784369693 0 0 0
328 0 7 1.575 10.651162890924008 22.44707632496415 -49.06153165335056 0 0 0
265 0 7 1.575 9.508710149626966 19.293975394506322 -50.18356005982215 0 0 0
264 0 8 -1.05 8.812963800850136 18.368414666314994 -52.952994492352396 0 0 0
330 0 8 -1.05 10.986417961279056 24.719002647255643 -53.20571478691401 0 0 0
266 0 8 -1.05 10.568458989349024 20.298893140137956 -53.275394595723554 0 0 0
267 0 6 1.05 10.796995354032658 18.299907579773382 -53.6699053655324 0 0 0
263 0 7 1.575 8.601690827638144 20.32601203393405 -53.212881914781 0 0 0
321 0 8 -1.05 8.44208359212262 22.267744084639986 -53.33997074680799 0 0 0
262 0 8 -1.05 8.421742615444385 20.46335299994748 -51.1413528582921 0 0 0
268 0 8 -1.05 10.798895776103018 17.936326034098403 -50.52952714237482 0 0 0
331 0 7 1.575 11.7362932088159 21.462047909143244 -52.36905476732959 0 0 0
280 0 7 1.575 16.168881704702216 17.332778103320166 -52.40251412144691 0 0 0
273 0 8 -1.05 12.98878759682134 18.457647439955387 -48.97209884386084 0 0 0
274 0 8 -1.05 12.825083282595914 20.409541908523636 -51.054666487009634 0 0 0
276 0 8 -1.05 12.8231329138334 20.4158094534636 -46.99492303347375 0 0 0
275 0 8 -1.05 15.149340190464445 18.488860543795507 -51.13267861365516 0 0 0
278 0 7 1.575 14.794301160225197 20.432216658538543 -51.250841983282164 0 0 0
277 0 6 1.05 14.998425538811514 18.2232594780278 -49.14896811652202 0 0 0
272 0 7 1.575 12.794731576329067 20.420071181771185 -49.087524636358 0 0 0
271 0 6 1.05 12.913393134862627 18.268546303903243 -51.24895915984361 0 0 0
336 0 7 1.575 13.988557462792215 23.51862974979301 -50.03453591005936 0 0 0
337 0 8 -1.05 14.895415788717663 24.624402104065922 -53.33854244795709 0 0 0
339 0 8 -1.05 15.065170627441397 22.441462799242412 -51.17737907612565 0 0 0
279 0 8 -1.05 15.182233251050045 20.608828666589314 -53.094087262010056 0 0 0
333 0 8 -1.05 12.82111182557736 24.626211888464304 -51.06662388921521 0 0 0
335 0 8 -1.05 13.072933399889957 22.608110723223476 -53.135919904954065 0 0 0
334 0 7 1.575 12.89885548266914 24.518866614355396 -53.06335949241742 0 0 0
270 0 8 -1.05 12.795865385129924 18.129220438584024 -53.205819643544935 0 0 0
338 0 7 1.575 15.028478783368973 22.53215398634003 -53.20383085764684 0 0 0
346 0 8 -1.05 19.088824656039357 23.082721670625304 -50.702699880219996 0 0 0
293 0 8 -1.05 21.36385671198751 18.376599140999986 -48.85529748326452 0 0 0
347 0 8 -1.05 19.352834407135603 22.429010046803185 -46.68932281633111 0 0 0
294 0 8 -1.05 21.228904544658178 20.340079850325647 -50.86137239095007 0 0 0
296 0 8 -1.05 23.341577715409063 20.336756352131456 -48.83236999229774 0 0 0
345 0 8 -1.05 18.565706543726805 0.45974556583348053 -50.983255981718585 0 1 0
344 0 8 -1.05 14.93211037446978 22.39266387770576 -46.77387429961226 0 0 0
295 0 8 -1.05 23.344213341478238 18.217939080465758 -50.965665967548006 0 0 0
349 0 7 1.575 20.00103651275601 24.570930695383314 -51.64807095973338 0 0 0
298 0 6 1.05 23.370664376076057 20.29628229741702 -51.12437610872243 0 0 0
297 0 6 1.05 23.46785031522857 18.221641012957832 -48.92362192967959 0 0 0
292 0 7 1.575 21.341616202159308 20.344290004936457 -48.87890635960502 0 0 0
342 0 6 1.05 16.98052014636768 24.554809967026213 -53.82885425765483 0 0 0
343 0 7 1.575 17.30019924953695 24.96779909582271 -49.78118872254496 0 0 0
348 0 6 1.05 19.218134351179 22.536287650695805 -48.78909554550843 0 0 0
291 0 7 1.575 21.340192025563717 18.218222039031986 -51.1667443195687 0 0 0
356 0 7 1.575 22.46182421074169 23.515582244449664 -49.80561201783832 0 0 0
285 0 7 1.575 18.21882233790017 19.365951800786146 -50.11487966278955 0 0 0
357 0 8 -1.05 23.6042977927433 24.54225436681485 -53.36482941627171 0 0 0
359 0 8 -1.05 23.59960467966051 22.48660335057313 -50.90054948251848 0 0 0
299 0 8 -1.05 23.603934170704036 20.623842102505176 -53.109359539121314 0 0 0
353 0 8 -1.05 21.08335735263812 24.83610485288677 -50.0031823106449 0 0 0
284 0 8 -1.05 17.37406353362269 18.499774677213487 -53.331539907855095 0 0 0
350 0 8 -1.05 18.98045299346787 24.589340481646822 -53.43699782190334 0 0 0
355 0 8 -1.05 21.080946433205614 22.958342134061855 -52.50571789441834 0 0 0
286 0 8 -1.05 18.250653099173856 20.593244586358523 -51.61173040005977 0 0 0
287 0 6 1.05 19.231286446601157 17.92132265223853 -53.68647461836019 0 0 0
354 0 6 1.05 20.88942600832329 24.25344827452861 -54.05218786782401 0 0 0
283 0 6 1.05 17.146219644497627 20.52117495205409 -53.4219672076694 0 0 0
358 0 6 1.05 23.160635439174726 22.54524792962536 -52.905696322340034 0 0 0
351 0 7 1.575 19.923692781350365 21.566645438443366 -51.683309711735426 0 0 0
290 0 8 -1.05 21.11146115106146 18.162516083785643 -53.076214824767796 0 0 0
288 0 8 -1.05 19.36193642706314 18.05476964177317 -50.84167457603974 0 0 0
282 0 8 -1.05 14.839361224922245 20.446987839393714 -49.20904256892254 0 0 0
341 0 8 -1.05 16.81726330608533 22.57118466980419 -53.92455043939748 0 0 0
300 0 7 1.575 24.558629310183115 17.140113784077872 -52.107146763281854 0 0 0
416 0 7 1.575 7.373614201339086 4.490211312127847 -47.93734293017192 0 0 0
368 0 6 1.05 2.2186114825038827 3.522421309439445 -46.8874586527628 0 0 0
415 0 6 1.05 6.4602735110062985 7.655064820541121 -46.72545519713198 0 0 0
361 0 7 1.575 0.13641265649433318 1.3636642653061575 -46.88418774314957 0 0 0
408 0 7 1.575 4.382702765571876 5.513355099535801 -46.75829849217884 0 0 0
371 0 8 -1.05 4.317451545141788 3.5395393705151834 -46.40913994897927 0 0 0
411 0 8 -1.05 4.377335432912688 7.48421883185902 -46.6317022444304 0 0 0
80 0 8 -1.05 6.42010827497978 7.7115385438516 -48.75768394602118 0 0 0
72 0 8 -1.05 4.308913400709907 5.62195540307493 -48.707431313115265 0 0 0
365 0 8 -1.05 2.2398441736038017 1.3881216372929417 -46.80940424671192 0 0 0
406 0 8 -1.05 2.3718221559996455 5.554083242293311 -46.60245283105339 0 0 0
412 0 8 -1.05 6.3674090080801315 5.518889216715315 -46.63741637777956 0 0 0
364 0 8 -1.05 0.16066120657355862 3.3431430189342866 -46.77787616806861 0 0 0
9 0 8 -1.05 2.8958121223281656 3.310332490958958 -48.84029137292232 0 0 0
373 0 8 -1.05 6.330634097055998 1.0628045681751757 -46.59720558095825 0 0 0
404 0 8 -1.05 0.01886737839452414 7.797524172688541 -46.48538852932546 0 0 0
1 0 8 -1.05 0.3865000107256129 1.2848722571907227 -48.8986985216456 0 0 0
372 0 7 1.575 4.967914430165365 2.0990563021670012 -47.479421851338834 0 0 0
405 0 7 1.575 1.4087186969772936 6.983433787200669 -47.49467539698488 0 0 0
369 0 7 1.575 2.4643196047881943 1.2575777192226656 -48.96134260013279 0 0 0
663 0 7 1.575 4.348916472387243 3.532438516266275 -44.42990382959029 0 0 0
414 0 6 1.05 6.491460880448169 5.549484045311783 -44.616129839544776 0 0 0
362 0 6 1.05 0.1325260160179269 3.42337653284146 -44.7094097255394 0 0 0
409 0 7 1.575 4.326919637991162 7.6673643854124025 -44.66448353317627 0 0 0
367 0 7 1.575 2.2997001252741995 1.3447921189995093 -44.75907865560371 0 0 0
366 0 8 -1.05 2.3168163989579535 3.35311717516745 -44.62433631430472 0 0 0
410 0 8 -1.05 4.347053117997059 5.559086342551306 -44.60616437614793 0 0 0
407 0 8 -1.05 2.1593211464859943 7.6551466425181385 -44.35474155657002 0 0 0
363 0 8 -1.05 0.3166716501694019 1.3692111266734608 -44.758612486311044 0 0 0
665 0 8 -1.05 4.200620023580394 7.701171095275189 -42.559358043019515 0 0 0
374 0 8 -1.05 6.454968653039127 3.2850233071641006 -44.45379163782466 0 0 0
667 0 8 -1.05 6.62162565866183 5.414589486511626 -42.51477459431405 0 0 0
413 0 8 -1.05 6.319242573935974 7.5963782208854935 -44.51968123110017 0 0 0
615 0 7 1.575 1.2617038350868097 2.2867358060219423 -41.526494370267805 0 0 0
666 0 7 1.575 5.357899992384731 6.5177125762218076 -41.60211534771022 0 0 0
618 0 7 1.575 4.3069409730322326 1.232426023541326 -42.47780705176882 0 0 0
655 0 6 1.05 2.199262900686603 5.472912853480463 -44.522441120175074 0 0 0
625 0 6 1.05 6.555116965079503 3.3428795980230546 -42.41483022920794 0 0 0
662 0 7 1.575 2.246602227479785 7.609474681553583 -42.376014537601385 0 0 0
622 0 8 -1.05 6.348770976388689 1.1280683279846184 -42.53353589890162 0 0 0
658 0 8 -1.05 0.2001866135405704 7.548918834792258 -42.34241379786303 0 0 0
621 0 8 -1.05 4.479973599176325 3.2094364833643794 -42.43778558741346 0 0 0
659 0 8 -1.05 2.0648958982484706 5.662832534369881 -42.383670308138456 0 0 0
616 0 8 -1.05 2.348006070973562 1.1900793665320768 -42.66625323850212 0 0 0
370 0 8 -1.05 4.3910280216211905 1.4022378156502122 -44.45678503620311 0 0 0
403 0 8 -1.05 0.05702943906965594 5.630542500506684 -44.36940724190528 0 0 0
614 0 8 -1.05 0.058333201967397864 3.4925324582414268 -42.41765855637235 0 0 0
626 0 7 1.575 6.536906368981548 1.190129027563895 -44.625321887073156 0 0 0
418 0 8 -1.05 8.532728032725798 7.719375415323793 -46.84185521955951 0 0 0
21 0 8 -1.05 8.437011410790625 1.1910590057450892 -49.03036596703349 0 0 0
382 0 6 1.05 10.526751656413845 3.3627473997873887 -46.92542540445646 0 0 0
375 0 6 1.05 8.466611625951062 1.3000045402064089 -46.98600268913206 0 0 0
379 0 8 -1.05 10.552413323014166 1.2488120062106398 -46.78118165477638 0 0 0
420 0 8 -1.05 10.671437938404518 5.446913377360167 -46.8833246352652 0 0 0
378 0 8 -1.05 8.436614784498547 3.40091513583166 -46.72088968049105 0 0 0
29 0 8 -1.05 10.593802237983391 3.437091237799757 -48.985740398786454 0 0 0
419 0 7 1.575 9.605248332678794 6.568981485536342 -45.777507867065864 0 0 0
383 0 7 1.575 11.62603255099924 0.20422772434694866 -48.02941827207891 0 0 0
417 0 8 -1.05 8.598363809281322 5.4181228807142245 -44.54977747503445 0 0 0