LAMMPS data file. CGCMM style. atom_style full generated by VMD/TopoTools v1.8 on Tue Oct 24 09:23:04 CEST 2023
 4356 atoms
 72 bonds
 108 angles
 0 dihedrals
 18 impropers
 9 atom types
 3 bond types
 3 angle types
 0 dihedral types
 1 improper types
 -12.843812 12.596189  xlo xhi
 4.731830 30.171831  ylo yhi
 -64.814984 32.871440  zlo zhi

# Pair Coeffs
#
# 1  1
# 2  10
# 3  2
# 4  3
# 5  4
# 6  5
# 7  7
# 8  8
# 9  9

# Bond Coeffs
#
# 1  1
# 2  2
# 3  5

# Angle Coeffs
#
# 1  2
# 2  5
# 3  6

# Improper Coeffs
#
# 1  2

 Masses

 1 12.011000 # 1
 2 1.008000 # 10
 3 1.008000 # 2
 4 15.999400 # 3
 5 55.845001 # 4
 6 55.845001 # 5
 7 55.845001 # 7
 8 15.999400 # 8
 9 15.999400 # 9

 Atoms # full

1 1 8 -1.050000 -0.847299 0.910010 -48.464752 # 8 
2 1 8 -1.050000 -2.398458 2.461169 -50.658421 # 8 
3 1 5 1.050000 -2.346366 2.461169 -52.741589 # 4 
4 1 8 -1.050000 -0.847299 1.014195 -52.778423 # 8 
5 1 7 1.575000 -0.847299 2.461169 -49.561588 # 7 
6 1 8 -1.050000 -0.847299 3.908143 -52.778423 # 8 
7 1 5 1.050000 0.651767 2.461169 -52.741589 # 4 
8 1 8 -1.050000 0.703860 2.461169 -50.658421 # 8 
9 1 8 -1.050000 -0.847299 4.012328 -48.464752 # 8 
10 1 8 -1.050000 2.150834 3.908142 -52.704754 # 8 
11 1 5 1.050000 2.150833 3.960235 -50.621586 # 4 
12 1 6 1.575000 0.651767 5.459301 -48.501587 # 5 
13 1 8 -1.050000 2.150834 4.012328 -48.538422 # 8 
14 1 8 -1.050000 0.703860 5.459301 -50.584751 # 8 
15 1 8 -1.050000 3.597806 5.459301 -50.584751 # 8 
16 1 8 -1.050000 2.150833 6.906274 -48.538422 # 8 
17 1 5 1.050000 3.649899 5.459301 -48.501587 # 4 
18 1 6 1.575000 2.150833 6.958367 -50.621586 # 5 
19 1 8 -1.050000 2.150834 7.010460 -52.704754 # 8 
20 1 7 1.575000 5.148966 5.459301 -51.681587 # 7 
21 1 8 -1.050000 5.148966 6.906275 -48.464752 # 8 
22 1 8 -1.050000 3.597807 8.457434 -50.658421 # 8 
23 1 6 1.575000 3.649900 8.457434 -52.741589 # 5 
24 1 8 -1.050000 5.148966 7.010460 -52.778423 # 8 
25 1 7 1.575000 5.148966 8.457434 -49.561588 # 7 
26 1 8 -1.050000 5.148966 9.904408 -52.778423 # 8 
27 1 6 1.575000 6.648033 8.457434 -52.741589 # 5 
28 1 8 -1.050000 6.700125 8.457434 -50.658421 # 8 
29 1 8 -1.050000 5.148966 10.008593 -48.464752 # 8 
30 1 8 -1.050000 8.147099 9.904408 -52.704754 # 8 
31 1 5 1.050000 8.147099 9.956500 -50.621586 # 4 
32 1 6 1.575000 6.648033 11.455566 -48.501587 # 5 
33 1 8 -1.050000 8.147099 10.008593 -48.538422 # 8 
34 1 8 -1.050000 6.700125 11.455566 -50.584751 # 8 
35 1 8 -1.050000 9.594072 11.455566 -50.584751 # 8 
36 1 8 -1.050000 8.147099 12.902540 -48.538422 # 8 
37 1 6 1.575000 9.646166 11.455566 -48.501587 # 5 
38 1 5 1.050000 8.147099 12.954634 -50.621586 # 4 
39 1 8 -1.050000 8.147099 13.006725 -52.704754 # 8 
40 1 7 1.575000 11.145232 11.455567 -51.681587 # 7 
41 1 8 -1.050000 11.145231 12.902540 -48.464752 # 8 
42 1 8 -1.050000 9.594072 14.453699 -50.658421 # 8 
43 1 5 1.050000 9.646166 14.453699 -52.741589 # 4 
44 1 8 -1.050000 11.145231 13.006725 -52.778423 # 8 
45 1 7 1.575000 11.145231 14.453699 -49.561588 # 7 
46 1 8 -1.050000 11.145232 15.900674 -52.778423 # 8 
47 1 5 1.050000 12.644299 14.453699 -52.741589 # 4 
48 1 8 -1.050000 12.696391 14.453700 -50.658421 # 8 
49 1 8 -1.050000 11.145232 16.004860 -48.464752 # 8 
50 1 8 -1.050000 14.143364 15.900673 -52.704754 # 8 
51 1 6 1.575000 14.143364 15.952765 -50.621586 # 5 
52 1 5 1.050000 12.644297 17.451832 -48.501587 # 4 
53 1 8 -1.050000 14.143364 16.004858 -48.538422 # 8 
54 1 8 -1.050000 12.696390 17.451832 -50.584751 # 8 
55 1 8 -1.050000 15.590337 17.451830 -50.584751 # 8 
56 1 8 -1.050000 14.143363 18.898804 -48.538422 # 8 
57 1 5 1.050000 15.642432 17.451834 -48.501587 # 4 
58 1 6 1.575000 14.143366 18.950899 -50.621586 # 5 
59 1 8 -1.050000 14.143364 19.002991 -52.704754 # 8 
60 1 7 1.575000 17.141499 17.451832 -51.681587 # 7 
61 1 8 -1.050000 -3.845432 3.908142 -52.704754 # 8 
62 1 6 1.575000 -3.845432 3.960235 -50.621586 # 5 
63 1 5 1.050000 -5.344498 5.459301 -48.501587 # 4 
64 1 8 -1.050000 -3.845432 4.012327 -48.538422 # 8 
65 1 8 -1.050000 -5.292405 5.459301 -50.584751 # 8 
66 1 8 -1.050000 -2.398458 5.459301 -50.584751 # 8 
67 1 8 -1.050000 -3.845431 6.906274 -48.538422 # 8 
68 1 5 1.050000 -2.346365 5.459301 -48.501587 # 4 
69 1 6 1.575000 -3.845432 6.958368 -50.621586 # 5 
70 1 8 -1.050000 -3.845432 7.010460 -52.704754 # 8 
71 1 7 1.575000 -0.847299 5.459301 -51.681587 # 7 
72 1 8 -1.050000 -0.847299 6.906275 -48.464752 # 8 
73 1 8 -1.050000 -2.398458 8.457434 -50.658421 # 8 
74 1 5 1.050000 -2.346366 8.457434 -52.741589 # 4 
75 1 8 -1.050000 -0.847299 7.010460 -52.778423 # 8 
76 1 7 1.575000 -0.847299 8.457434 -49.561588 # 7 
77 1 8 -1.050000 -0.847299 9.904406 -52.778423 # 8 
78 1 5 1.050000 0.651767 8.457434 -52.741589 # 4 
79 1 8 -1.050000 0.703860 8.457434 -50.658421 # 8 
80 1 8 -1.050000 -0.847299 10.008593 -48.464752 # 8 
81 1 8 -1.050000 2.150833 9.904408 -52.704754 # 8 
82 1 5 1.050000 2.150834 9.956501 -50.621586 # 4 
83 1 6 1.575000 0.651767 11.455566 -48.501587 # 5 
84 1 8 -1.050000 2.150834 10.008593 -48.538422 # 8 
85 1 8 -1.050000 0.703861 11.455566 -50.584751 # 8 
86 1 8 -1.050000 3.597808 11.455566 -50.584751 # 8 
87 1 8 -1.050000 2.150835 12.902540 -48.538422 # 8 
88 1 6 1.575000 3.649900 11.455566 -48.501587 # 5 
89 1 5 1.050000 2.150834 12.954634 -50.621586 # 4 
90 1 8 -1.050000 2.150833 13.006725 -52.704754 # 8 
91 1 7 1.575000 5.148966 11.455566 -51.681587 # 7 
92 1 8 -1.050000 5.148967 12.902541 -48.464752 # 8 
93 1 8 -1.050000 3.597808 14.453700 -50.658421 # 8 
94 1 6 1.575000 3.649900 14.453699 -52.741589 # 5 
95 1 8 -1.050000 5.148966 13.006725 -52.778423 # 8 
96 1 7 1.575000 5.148967 14.453700 -49.561588 # 7 
97 1 8 -1.050000 5.148967 15.900672 -52.778423 # 8 
98 1 6 1.575000 6.648033 14.453699 -52.741589 # 5 
99 1 8 -1.050000 6.700125 14.453699 -50.658421 # 8 
100 1 8 -1.050000 5.148966 16.004858 -48.464752 # 8 
101 1 8 -1.050000 8.147099 15.900673 -52.704754 # 8 
102 1 6 1.575000 8.147099 15.952766 -50.621586 # 5 
103 1 5 1.050000 6.648033 17.451832 -48.501587 # 4 
104 1 8 -1.050000 8.147099 16.004858 -48.538422 # 8 
105 1 8 -1.050000 6.700126 17.451832 -50.584751 # 8 
106 1 8 -1.050000 9.594073 17.451832 -50.584751 # 8 
107 1 8 -1.050000 8.147100 18.898806 -48.538422 # 8 
108 1 5 1.050000 9.646166 17.451832 -48.501587 # 4 
109 1 6 1.575000 8.147099 18.950899 -50.621586 # 5 
110 1 8 -1.050000 8.147099 19.002991 -52.704754 # 8 
111 1 7 1.575000 11.145231 17.451832 -51.681587 # 7 
112 1 8 -1.050000 11.145231 18.898806 -48.464752 # 8 
113 1 8 -1.050000 9.594072 20.449965 -50.658421 # 8 
114 1 5 1.050000 9.646164 20.449965 -52.741589 # 4 
115 1 8 -1.050000 11.145231 19.002991 -52.778423 # 8 
116 1 7 1.575000 11.145232 20.449966 -49.561588 # 7 
117 1 8 -1.050000 11.145231 21.896936 -52.778423 # 8 
118 1 5 1.050000 12.644299 20.449966 -52.741589 # 4 
119 1 8 -1.050000 12.696390 20.449965 -50.658421 # 8 
120 1 8 -1.050000 11.145231 22.001123 -48.464752 # 8 
121 1 8 -1.050000 -6.843564 6.906275 -48.464752 # 8 
122 1 8 -1.050000 -8.394724 8.457434 -50.658421 # 8 
123 1 6 1.575000 -8.342631 8.457435 -52.741589 # 5 
124 1 8 -1.050000 -6.843565 7.010460 -52.778423 # 8 
125 1 7 1.575000 -6.843565 8.457434 -49.561588 # 7 
126 1 8 -1.050000 -6.843565 9.904408 -52.778423 # 8 
127 1 5 1.050000 -5.344498 8.457434 -52.741589 # 4 
128 1 8 -1.050000 -5.292405 8.457434 -50.658421 # 8 
129 1 8 -1.050000 -6.843565 10.008593 -48.464752 # 8 
130 1 8 -1.050000 -3.845432 9.904408 -52.704754 # 8 
131 1 6 1.575000 -3.845432 9.956500 -50.621586 # 5 
132 1 6 1.575000 -5.344499 11.455567 -48.501587 # 5 
133 1 8 -1.050000 -3.845432 10.008593 -48.538422 # 8 
134 1 8 -1.050000 -5.292406 11.455566 -50.584751 # 8 
135 1 8 -1.050000 -2.398459 11.455566 -50.584751 # 8 
136 1 8 -1.050000 -3.845433 12.902540 -48.538422 # 8 
137 1 5 1.050000 -2.346366 11.455566 -48.501587 # 4 
138 1 5 1.050000 -3.845433 12.954634 -50.621586 # 4 
139 1 8 -1.050000 -3.845432 13.006725 -52.704754 # 8 
140 1 7 1.575000 -0.847300 11.455566 -51.681587 # 7 
141 1 8 -1.050000 -0.847299 12.902540 -48.464752 # 8 
142 1 8 -1.050000 -2.398458 14.453699 -50.658421 # 8 
143 1 6 1.575000 -2.346366 14.453700 -52.741589 # 5 
144 1 8 -1.050000 -0.847299 13.006725 -52.778423 # 8 
145 1 7 1.575000 -0.847300 14.453699 -49.561588 # 7 
146 1 8 -1.050000 -0.847299 15.900673 -52.778423 # 8 
147 1 6 1.575000 0.651767 14.453699 -52.741589 # 5 
148 1 8 -1.050000 0.703860 14.453699 -50.658421 # 8 
149 1 8 -1.050000 -0.847300 16.004858 -48.464752 # 8 
150 1 8 -1.050000 2.150835 15.900673 -52.704754 # 8 
151 1 5 1.050000 2.150834 15.952766 -50.621586 # 4 
152 1 6 1.575000 0.651767 17.451832 -48.501587 # 5 
153 1 8 -1.050000 2.150833 16.004858 -48.538422 # 8 
154 1 8 -1.050000 0.703859 17.451832 -50.584751 # 8 
155 1 8 -1.050000 3.597807 17.451832 -50.584751 # 8 
156 1 8 -1.050000 2.150833 18.898806 -48.538422 # 8 
157 1 5 1.050000 3.649900 17.451832 -48.501587 # 4 
158 1 6 1.575000 2.150833 18.950899 -50.621586 # 5 
159 1 8 -1.050000 2.150833 19.002991 -52.704754 # 8 
160 1 7 1.575000 5.148967 17.451832 -51.681587 # 7 
161 1 8 -1.050000 5.148966 18.898806 -48.464752 # 8 
162 1 8 -1.050000 3.597807 20.449965 -50.658421 # 8 
163 1 6 1.575000 3.649899 20.449966 -52.741589 # 5 
164 1 8 -1.050000 5.148966 19.002991 -52.778423 # 8 
165 1 7 1.575000 5.148966 20.449965 -49.561588 # 7 
166 1 8 -1.050000 5.148967 21.896938 -52.778423 # 8 
167 1 6 1.575000 6.648033 20.449965 -52.741589 # 5 
168 1 8 -1.050000 6.700126 20.449965 -50.658421 # 8 
169 1 8 -1.050000 5.148967 22.001125 -48.464752 # 8 
170 1 8 -1.050000 8.147099 21.896938 -52.704754 # 8 
171 1 5 1.050000 8.147099 21.949030 -50.621586 # 4 
172 1 6 1.575000 6.648031 23.448097 -48.501587 # 5 
173 1 8 -1.050000 8.147099 22.001123 -48.538422 # 8 
174 1 8 -1.050000 6.700125 23.448097 -50.584751 # 8 
175 1 8 -1.050000 9.594071 23.448097 -50.584751 # 8 
176 1 8 -1.050000 8.147098 24.895069 -48.538422 # 8 
177 1 6 1.575000 9.646166 23.448099 -48.501587 # 5 
178 1 5 1.050000 8.147099 24.947166 -50.621586 # 4 
179 1 8 -1.050000 8.147099 24.999256 -52.704754 # 8 
180 1 7 1.575000 11.145232 23.448097 -51.681587 # 7 
181 1 8 -1.050000 -9.841698 9.904408 -52.704754 # 8 
182 1 5 1.050000 -9.841698 9.956501 -50.621586 # 4 
183 1 6 1.575000 -11.340763 11.455566 -48.501587 # 5 
184 1 8 -1.050000 -9.841698 10.008593 -48.538422 # 8 
185 1 8 -1.050000 -11.288671 11.455565 -50.584751 # 8 
186 1 8 -1.050000 -8.394724 11.455566 -50.584751 # 8 
187 1 8 -1.050000 -9.841697 12.902539 -48.538422 # 8 
188 1 5 1.050000 -8.342631 11.455567 -48.501587 # 4 
189 1 6 1.575000 -9.841697 12.954633 -50.621586 # 5 
190 1 8 -1.050000 -9.841698 13.006725 -52.704754 # 8 
191 1 7 1.575000 -6.843565 11.455566 -51.681587 # 7 
192 1 8 -1.050000 -6.843565 12.902540 -48.464752 # 8 
193 1 8 -1.050000 -8.394724 14.453699 -50.658421 # 8 
194 1 5 1.050000 -8.342630 14.453699 -52.741589 # 4 
195 1 8 -1.050000 -6.843565 13.006725 -52.778423 # 8 
196 1 7 1.575000 -6.843565 14.453699 -49.561588 # 7 
197 1 8 -1.050000 -6.843565 15.900671 -52.778423 # 8 
198 1 6 1.575000 -5.344499 14.453699 -52.741589 # 5 
199 1 8 -1.050000 -5.292406 14.453699 -50.658421 # 8 
200 1 8 -1.050000 -6.843565 16.004858 -48.464752 # 8 
201 1 8 -1.050000 -3.845432 15.900673 -52.704754 # 8 
202 1 5 1.050000 -3.845432 15.952766 -50.621586 # 4 
203 1 5 1.050000 -5.344498 17.451832 -48.501587 # 4 
204 1 8 -1.050000 -3.845432 16.004858 -48.538422 # 8 
205 1 8 -1.050000 -5.292405 17.451832 -50.584751 # 8 
206 1 8 -1.050000 -2.398458 17.451832 -50.584751 # 8 
207 1 8 -1.050000 -3.845431 18.898806 -48.538422 # 8 
208 1 6 1.575000 -2.346366 17.451832 -48.501587 # 5 
209 1 6 1.575000 -3.845431 18.950897 -50.621586 # 5 
210 1 8 -1.050000 -3.845432 19.002991 -52.704754 # 8 
211 1 7 1.575000 -0.847300 17.451832 -51.681587 # 7 
212 1 8 -1.050000 -0.847299 18.898808 -48.464752 # 8 
213 1 8 -1.050000 -2.398458 20.449966 -50.658421 # 8 
214 1 6 1.575000 -2.346365 20.449965 -52.741589 # 5 
215 1 8 -1.050000 -0.847300 19.002991 -52.778423 # 8 
216 1 7 1.575000 -0.847299 20.449966 -49.561588 # 7 
217 1 8 -1.050000 -0.847299 21.896938 -52.778423 # 8 
218 1 5 1.050000 0.651767 20.449966 -52.741589 # 4 
219 1 8 -1.050000 0.703859 20.449965 -50.658421 # 8 
220 1 8 -1.050000 -0.847300 22.001123 -48.464752 # 8 
221 1 8 -1.050000 2.150833 21.896938 -52.704754 # 8 
222 1 5 1.050000 2.150833 21.949032 -50.621586 # 4 
223 1 6 1.575000 0.651768 23.448097 -48.501587 # 5 
224 1 8 -1.050000 2.150833 22.001123 -48.538422 # 8 
225 1 8 -1.050000 0.703860 23.448097 -50.584751 # 8 
226 1 8 -1.050000 3.597808 23.448097 -50.584751 # 8 
227 1 8 -1.050000 2.150835 24.895071 -48.538422 # 8 
228 1 5 1.050000 3.649899 23.448097 -48.501587 # 4 
229 1 6 1.575000 2.150834 24.947163 -50.621586 # 5 
230 1 8 -1.050000 2.150834 24.999256 -52.704754 # 8 
231 1 7 1.575000 5.148966 23.448097 -51.681587 # 7 
232 1 8 -1.050000 5.148966 24.895071 -48.464752 # 8 
233 1 8 -1.050000 3.597807 26.446230 -50.658421 # 8 
234 1 5 1.050000 3.649899 26.446228 -52.741589 # 4 
235 1 8 -1.050000 5.148966 24.999256 -52.778423 # 8 
236 1 7 1.575000 5.148967 26.446232 -49.561588 # 7 
237 1 8 -1.050000 5.148966 27.893202 -52.778423 # 8 
238 1 6 1.575000 6.648033 26.446232 -52.741589 # 5 
239 1 8 -1.050000 6.700125 26.446230 -50.658421 # 8 
240 1 8 -1.050000 5.148966 27.997389 -48.464752 # 8 
241 1 8 -1.050000 -12.839829 12.902539 -48.464752 # 8 
242 1 8 -1.050000 -14.390989 14.453699 -50.658421 # 8 
243 1 6 1.575000 -14.338896 14.453699 -52.741589 # 5 
244 1 8 -1.050000 -12.839830 13.006725 -52.778423 # 8 
245 1 7 1.575000 -12.839830 14.453699 -49.561588 # 7 
246 1 8 -1.050000 -12.839830 15.900673 -52.778423 # 8 
247 1 6 1.575000 -11.340764 14.453700 -52.741589 # 5 
248 1 8 -1.050000 -11.288671 14.453698 -50.658421 # 8 
249 1 8 -1.050000 -12.839830 16.004858 -48.464752 # 8 
250 1 8 -1.050000 -9.841697 15.900672 -52.704754 # 8 
251 1 5 1.050000 -9.841698 15.952766 -50.621586 # 4 
252 1 5 1.050000 -11.340763 17.451832 -48.501587 # 4 
253 1 8 -1.050000 -9.841698 16.004858 -48.538422 # 8 
254 1 8 -1.050000 -11.288671 17.451832 -50.584751 # 8 
255 1 8 -1.050000 -8.394724 17.451832 -50.584751 # 8 
256 1 8 -1.050000 -9.841698 18.898806 -48.538422 # 8 
257 1 6 1.575000 -8.342632 17.451832 -48.501587 # 5 
258 1 6 1.575000 -9.841698 18.950897 -50.621586 # 5 
259 1 8 -1.050000 -9.841698 19.002991 -52.704754 # 8 
260 1 7 1.575000 -6.843565 17.451832 -51.681587 # 7 
261 1 8 -1.050000 -6.843564 18.898804 -48.464752 # 8 
262 1 8 -1.050000 -8.394724 20.449965 -50.658421 # 8 
263 1 6 1.575000 -8.342630 20.449965 -52.741589 # 5 
264 1 8 -1.050000 -6.843565 19.002991 -52.778423 # 8 
265 1 7 1.575000 -6.843565 20.449965 -49.561588 # 7 
266 1 8 -1.050000 -6.843565 21.896938 -52.778423 # 8 
267 1 5 1.050000 -5.344499 20.449966 -52.741589 # 4 
268 1 8 -1.050000 -5.292405 20.449963 -50.658421 # 8 
269 1 8 -1.050000 -6.843565 22.001123 -48.464752 # 8 
270 1 8 -1.050000 -3.845430 21.896938 -52.704754 # 8 
271 1 5 1.050000 -3.845432 21.949032 -50.621586 # 4 
272 1 6 1.575000 -5.344498 23.448097 -48.501587 # 5 
273 1 8 -1.050000 -3.845432 22.001123 -48.538422 # 8 
274 1 8 -1.050000 -5.292406 23.448097 -50.584751 # 8 
275 1 8 -1.050000 -2.398458 23.448097 -50.584751 # 8 
276 1 8 -1.050000 -3.845432 24.895071 -48.538422 # 8 
277 1 5 1.050000 -2.346366 23.448097 -48.501587 # 4 
278 1 6 1.575000 -3.845431 24.947163 -50.621586 # 5 
279 1 8 -1.050000 -3.845432 24.999256 -52.704754 # 8 
280 1 7 1.575000 -0.847299 23.448097 -51.681587 # 7 
281 1 8 -1.050000 -0.847299 24.895069 -48.464752 # 8 
282 1 8 -1.050000 -2.398458 26.446230 -50.658421 # 8 
283 1 5 1.050000 -2.346365 26.446230 -52.741589 # 4 
284 1 8 -1.050000 -0.847300 24.999256 -52.778423 # 8 
285 1 7 1.575000 -0.847300 26.446230 -49.561588 # 7 
286 1 8 -1.050000 -0.847299 27.893204 -52.778423 # 8 
287 1 5 1.050000 0.651767 26.446232 -52.741589 # 4 
288 1 8 -1.050000 0.703861 26.446230 -50.658421 # 8 
289 1 8 -1.050000 -0.847299 27.997391 -48.464752 # 8 
290 1 8 -1.050000 2.150834 27.893204 -52.704754 # 8 
291 1 6 1.575000 2.150832 27.945297 -50.621586 # 5 
292 1 6 1.575000 0.651767 29.444363 -48.501587 # 5 
293 1 8 -1.050000 2.150833 27.997389 -48.538422 # 8 
294 1 8 -1.050000 0.703859 29.444363 -50.584751 # 8 
295 1 8 -1.050000 3.597806 29.444363 -50.584751 # 8 
296 1 8 -1.050000 2.150832 30.891335 -48.538422 # 8 
297 1 5 1.050000 3.649900 29.444365 -48.501587 # 4 
298 1 5 1.050000 2.150835 30.943430 -50.621586 # 4 
299 1 8 -1.050000 2.150833 30.995522 -52.704754 # 8 
300 1 7 1.575000 5.148967 29.444363 -51.681587 # 7 
301 1 8 -1.050000 -15.837962 15.900672 -52.704754 # 8 
302 1 6 1.575000 -15.837963 15.952766 -50.621586 # 5 
303 1 5 1.050000 -17.337029 17.451832 -48.501587 # 4 
304 1 8 -1.050000 -15.837963 16.004858 -48.538422 # 8 
305 1 8 -1.050000 -17.284935 17.451832 -50.584751 # 8 
306 1 8 -1.050000 -14.390989 17.451832 -50.584751 # 8 
307 1 8 -1.050000 -15.837962 18.898806 -48.538422 # 8 
308 1 5 1.050000 -14.338897 17.451832 -48.501587 # 4 
309 1 6 1.575000 -15.837962 18.950897 -50.621586 # 5 
310 1 8 -1.050000 -15.837963 19.002991 -52.704754 # 8 
311 1 7 1.575000 -12.839829 17.451832 -51.681587 # 7 
312 1 8 -1.050000 -12.839829 18.898806 -48.464752 # 8 
313 1 8 -1.050000 -14.390989 20.449965 -50.658421 # 8 
314 1 6 1.575000 -14.338896 20.449965 -52.741589 # 5 
315 1 8 -1.050000 -12.839830 19.002991 -52.778423 # 8 
316 1 7 1.575000 -12.839830 20.449965 -49.561588 # 7 
317 1 8 -1.050000 -12.839830 21.896936 -52.778423 # 8 
318 1 5 1.050000 -11.340765 20.449965 -52.741589 # 4 
319 1 8 -1.050000 -11.288670 20.449965 -50.658421 # 8 
320 1 8 -1.050000 -12.839830 22.001123 -48.464752 # 8 
321 1 8 -1.050000 -9.841697 21.896938 -52.704754 # 8 
322 1 5 1.050000 -9.841698 21.949032 -50.621586 # 4 
323 1 6 1.575000 -11.340763 23.448097 -48.501587 # 5 
324 1 8 -1.050000 -9.841698 22.001123 -48.538422 # 8 
325 1 8 -1.050000 -11.288670 23.448097 -50.584751 # 8 
326 1 8 -1.050000 -8.394724 23.448097 -50.584751 # 8 
327 1 8 -1.050000 -9.841696 24.895071 -48.538422 # 8 
328 1 6 1.575000 -8.342631 23.448097 -48.501587 # 5 
329 1 5 1.050000 -9.841697 24.947163 -50.621586 # 4 
330 1 8 -1.050000 -9.841698 24.999256 -52.704754 # 8 
331 1 7 1.575000 -6.843564 23.448097 -51.681587 # 7 
332 1 8 -1.050000 -6.843563 24.895071 -48.464752 # 8 
333 1 8 -1.050000 -8.394723 26.446232 -50.658421 # 8 
334 1 6 1.575000 -8.342630 26.446230 -52.741589 # 5 
335 1 8 -1.050000 -6.843565 24.999256 -52.778423 # 8 
336 1 7 1.575000 -6.843564 26.446232 -49.561588 # 7 
337 1 8 -1.050000 -6.843564 27.893204 -52.778423 # 8 
338 1 6 1.575000 -5.344499 26.446232 -52.741589 # 5 
339 1 8 -1.050000 -5.292405 26.446228 -50.658421 # 8 
340 1 8 -1.050000 -6.843565 27.997389 -48.464752 # 8 
341 1 8 -1.050000 -3.845431 27.893204 -52.704754 # 8 
342 1 5 1.050000 -3.845432 27.945297 -50.621586 # 4 
343 1 6 1.575000 -5.344498 29.444363 -48.501587 # 5 
344 1 8 -1.050000 -3.845432 27.997389 -48.538422 # 8 
345 1 8 -1.050000 -5.292405 29.444363 -50.584751 # 8 
346 1 8 -1.050000 -2.398458 29.444363 -50.584751 # 8 
347 1 8 -1.050000 -3.845430 30.891336 -48.538422 # 8 
348 1 5 1.050000 -2.346366 29.444363 -48.501587 # 4 
349 1 6 1.575000 -3.845431 30.943428 -50.621586 # 5 
350 1 8 -1.050000 -3.845431 30.995522 -52.704754 # 8 
351 1 7 1.575000 -0.847299 29.444363 -51.681587 # 7 
352 1 8 -1.050000 -0.847299 30.891335 -48.464752 # 8 
353 1 8 -1.050000 -2.398458 32.442497 -50.658421 # 8 
354 1 5 1.050000 -2.346366 32.442493 -52.741589 # 4 
355 1 8 -1.050000 -0.847300 30.995522 -52.778423 # 8 
356 1 7 1.575000 -0.847299 32.442497 -49.561588 # 7 
357 1 8 -1.050000 -0.847300 33.889465 -52.778423 # 8 
358 1 5 1.050000 0.651768 32.442497 -52.741589 # 4 
359 1 8 -1.050000 0.703860 32.442493 -50.658421 # 8 
360 1 8 -1.050000 -0.847300 33.993652 -48.464752 # 8 
361 1 6 1.575000 -0.847299 0.962102 -46.381588 # 5 
362 1 5 1.050000 -2.346366 2.461169 -44.261585 # 4 
363 1 8 -1.050000 -0.847299 1.014195 -44.298424 # 8 
364 1 8 -1.050000 -2.294273 2.461169 -46.344753 # 8 
365 1 8 -1.050000 0.599675 2.461169 -46.344753 # 8 
366 1 8 -1.050000 -0.847299 3.908143 -44.298424 # 8 
367 1 6 1.575000 0.651767 2.461169 -44.261585 # 5 
368 1 5 1.050000 -0.847299 3.960235 -46.381588 # 4 
369 1 7 1.575000 2.150833 2.461169 -47.441586 # 7 
370 1 8 -1.050000 2.150834 3.908142 -44.224751 # 8 
371 1 8 -1.050000 0.599674 5.459301 -46.418423 # 8 
372 1 7 1.575000 2.150833 5.459301 -45.321587 # 7 
373 1 8 -1.050000 3.701993 5.459301 -46.418423 # 8 
374 1 8 -1.050000 2.150834 7.010460 -44.224751 # 8 
375 1 5 1.050000 5.148966 6.958368 -46.381588 # 4 
376 1 6 1.575000 3.649900 8.457434 -44.261585 # 5 
377 1 8 -1.050000 5.148966 7.010460 -44.298424 # 8 
378 1 8 -1.050000 3.701993 8.457434 -46.344753 # 8 
379 1 8 -1.050000 6.595940 8.457434 -46.344753 # 8 
380 1 8 -1.050000 5.148966 9.904408 -44.298424 # 8 
381 1 6 1.575000 6.648033 8.457434 -44.261585 # 5 
382 1 5 1.050000 5.148966 9.956501 -46.381588 # 4 
383 1 7 1.575000 8.147099 8.457434 -47.441586 # 7 
384 1 8 -1.050000 8.147099 9.904408 -44.224751 # 8 
385 1 8 -1.050000 6.595941 11.455567 -46.418423 # 8 
386 1 7 1.575000 8.147099 11.455567 -45.321587 # 7 
387 1 8 -1.050000 9.698257 11.455566 -46.418423 # 8 
388 1 8 -1.050000 8.147099 13.006725 -44.224751 # 8 
389 1 5 1.050000 11.145232 12.954633 -46.381588 # 4 
390 1 5 1.050000 9.646166 14.453699 -44.261585 # 4 
391 1 8 -1.050000 11.145231 13.006725 -44.298424 # 8 
392 1 8 -1.050000 9.698257 14.453699 -46.344753 # 8 
393 1 8 -1.050000 12.592206 14.453700 -46.344753 # 8 
394 1 8 -1.050000 11.145232 15.900674 -44.298424 # 8 
395 1 6 1.575000 12.644299 14.453699 -44.261585 # 5 
396 1 6 1.575000 11.145231 15.952766 -46.381588 # 5 
397 1 7 1.575000 14.143364 14.453699 -47.441586 # 7 
398 1 8 -1.050000 14.143364 15.900673 -44.224751 # 8 
399 1 8 -1.050000 12.592205 17.451832 -46.418423 # 8 
400 1 7 1.575000 14.143365 17.451832 -45.321587 # 7 
401 1 8 -1.050000 15.694523 17.451832 -46.418423 # 8 
402 1 8 -1.050000 14.143364 19.002991 -44.224751 # 8 
403 1 8 -1.050000 -3.845432 3.908142 -44.224751 # 8 
404 1 8 -1.050000 -5.396591 5.459301 -46.418423 # 8 
405 1 7 1.575000 -3.845432 5.459301 -45.321587 # 7 
406 1 8 -1.050000 -2.294273 5.459301 -46.418423 # 8 
407 1 8 -1.050000 -3.845432 7.010460 -44.224751 # 8 
408 1 6 1.575000 -0.847299 6.958367 -46.381588 # 5 
409 1 6 1.575000 -2.346366 8.457434 -44.261585 # 5 
410 1 8 -1.050000 -0.847299 7.010460 -44.298424 # 8 
411 1 8 -1.050000 -2.294272 8.457434 -46.344753 # 8 
412 1 8 -1.050000 0.599674 8.457433 -46.344753 # 8 
413 1 8 -1.050000 -0.847299 9.904406 -44.298424 # 8 
414 1 5 1.050000 0.651767 8.457434 -44.261585 # 4 
415 1 5 1.050000 -0.847300 9.956500 -46.381588 # 4 
416 1 7 1.575000 2.150833 8.457434 -47.441586 # 7 
417 1 8 -1.050000 2.150833 9.904408 -44.224751 # 8 
418 1 8 -1.050000 0.599674 11.455566 -46.418423 # 8 
419 1 7 1.575000 2.150833 11.455566 -45.321587 # 7 
420 1 8 -1.050000 3.701992 11.455566 -46.418423 # 8 
421 1 8 -1.050000 2.150833 13.006725 -44.224751 # 8 
422 1 5 1.050000 5.148966 12.954634 -46.381588 # 4 
423 1 6 1.575000 3.649900 14.453699 -44.261585 # 5 
424 1 8 -1.050000 5.148966 13.006725 -44.298424 # 8 
425 1 8 -1.050000 3.701993 14.453698 -46.344753 # 8 
426 1 8 -1.050000 6.595940 14.453699 -46.344753 # 8 
427 1 8 -1.050000 5.148967 15.900672 -44.298424 # 8 
428 1 5 1.050000 6.648033 14.453699 -44.261585 # 4 
429 1 6 1.575000 5.148966 15.952766 -46.381588 # 5 
430 1 7 1.575000 8.147099 14.453700 -47.441586 # 7 
431 1 8 -1.050000 8.147099 15.900673 -44.224751 # 8 
432 1 8 -1.050000 6.595940 17.451832 -46.418423 # 8 
433 1 7 1.575000 8.147099 17.451832 -45.321587 # 7 
434 1 8 -1.050000 9.698258 17.451832 -46.418423 # 8 
435 1 8 -1.050000 8.147099 19.002991 -44.224751 # 8 
436 1 6 1.575000 11.145231 18.950897 -46.381588 # 5 
437 1 5 1.050000 9.646164 20.449965 -44.261585 # 4 
438 1 8 -1.050000 11.145231 19.002991 -44.298424 # 8 
439 1 8 -1.050000 9.698258 20.449963 -46.344753 # 8 
440 1 8 -1.050000 12.592204 20.449963 -46.344753 # 8 
441 1 8 -1.050000 11.145231 21.896936 -44.298424 # 8 
442 1 6 1.575000 12.644299 20.449966 -44.261585 # 5 
443 1 5 1.050000 11.145233 21.949032 -46.381588 # 4 
444 1 7 1.575000 14.143365 20.449966 -47.441586 # 7 
445 1 6 1.575000 -6.843565 6.958368 -46.381588 # 5 
446 1 5 1.050000 -8.342631 8.457435 -44.261585 # 4 
447 1 8 -1.050000 -6.843565 7.010460 -44.298424 # 8 
448 1 8 -1.050000 -8.290539 8.457434 -46.344753 # 8 
449 1 8 -1.050000 -5.396591 8.457434 -46.344753 # 8 
450 1 8 -1.050000 -6.843565 9.904408 -44.298424 # 8 
451 1 5 1.050000 -5.344498 8.457434 -44.261585 # 4 
452 1 6 1.575000 -6.843565 9.956501 -46.381588 # 5 
453 1 7 1.575000 -3.845432 8.457434 -47.441586 # 7 
454 1 8 -1.050000 -3.845432 9.904408 -44.224751 # 8 
455 1 8 -1.050000 -5.396591 11.455566 -46.418423 # 8 
456 1 7 1.575000 -3.845432 11.455566 -45.321587 # 7 
457 1 8 -1.050000 -2.294272 11.455566 -46.418423 # 8 
458 1 8 -1.050000 -3.845432 13.006725 -44.224751 # 8 
459 1 6 1.575000 -0.847299 12.954634 -46.381588 # 5 
460 1 5 1.050000 -2.346366 14.453700 -44.261585 # 4 
461 1 8 -1.050000 -0.847299 13.006725 -44.298424 # 8 
462 1 8 -1.050000 -2.294273 14.453699 -46.344753 # 8 
463 1 8 -1.050000 0.599675 14.453699 -46.344753 # 8 
464 1 8 -1.050000 -0.847299 15.900673 -44.298424 # 8 
465 1 6 1.575000 0.651767 14.453699 -44.261585 # 5 
466 1 5 1.050000 -0.847300 15.952766 -46.381588 # 4 
467 1 7 1.575000 2.150833 14.453699 -47.441586 # 7 
468 1 8 -1.050000 2.150835 15.900673 -44.224751 # 8 
469 1 8 -1.050000 0.599675 17.451832 -46.418423 # 8 
470 1 7 1.575000 2.150834 17.451832 -45.321587 # 7 
471 1 8 -1.050000 3.701993 17.451832 -46.418423 # 8 
472 1 8 -1.050000 2.150833 19.002991 -44.224751 # 8 
473 1 6 1.575000 5.148966 18.950899 -46.381588 # 5 
474 1 5 1.050000 3.649899 20.449966 -44.261585 # 4 
475 1 8 -1.050000 5.148966 19.002991 -44.298424 # 8 
476 1 8 -1.050000 3.701992 20.449965 -46.344753 # 8 
477 1 8 -1.050000 6.595941 20.449966 -46.344753 # 8 
478 1 8 -1.050000 5.148967 21.896938 -44.298424 # 8 
479 1 5 1.050000 6.648033 20.449965 -44.261585 # 4 
480 1 6 1.575000 5.148966 21.949032 -46.381588 # 5 
481 1 7 1.575000 8.147099 20.449965 -47.441586 # 7 
482 1 8 -1.050000 8.147099 21.896938 -44.224751 # 8 
483 1 8 -1.050000 6.595940 23.448097 -46.418423 # 8 
484 1 7 1.575000 8.147099 23.448097 -45.321587 # 7 
485 1 8 -1.050000 9.698257 23.448097 -46.418423 # 8 
486 1 8 -1.050000 8.147099 24.999256 -44.224751 # 8 
487 1 8 -1.050000 -9.841698 9.904408 -44.224751 # 8 
488 1 8 -1.050000 -11.392857 11.455566 -46.418423 # 8 
489 1 7 1.575000 -9.841698 11.455566 -45.321587 # 7 
490 1 8 -1.050000 -8.290539 11.455566 -46.418423 # 8 
491 1 8 -1.050000 -9.841698 13.006725 -44.224751 # 8 
492 1 5 1.050000 -6.843565 12.954634 -46.381588 # 4 
493 1 5 1.050000 -8.342630 14.453699 -44.261585 # 4 
494 1 8 -1.050000 -6.843565 13.006725 -44.298424 # 8 
495 1 8 -1.050000 -8.290537 14.453699 -46.344753 # 8 
496 1 8 -1.050000 -5.396592 14.453699 -46.344753 # 8 
497 1 8 -1.050000 -6.843565 15.900671 -44.298424 # 8 
498 1 6 1.575000 -5.344499 14.453699 -44.261585 # 5 
499 1 6 1.575000 -6.843565 15.952765 -46.381588 # 5 
500 1 7 1.575000 -3.845432 14.453699 -47.441586 # 7 
501 1 8 -1.050000 -3.845432 15.900673 -44.224751 # 8 
502 1 8 -1.050000 -5.396591 17.451832 -46.418423 # 8 
503 1 7 1.575000 -3.845432 17.451832 -45.321587 # 7 
504 1 8 -1.050000 -2.294273 17.451832 -46.418423 # 8 
505 1 8 -1.050000 -3.845432 19.002991 -44.224751 # 8 
506 1 5 1.050000 -0.847300 18.950899 -46.381588 # 4 
507 1 6 1.575000 -2.346365 20.449965 -44.261585 # 5 
508 1 8 -1.050000 -0.847300 19.002991 -44.298424 # 8 
509 1 8 -1.050000 -2.294272 20.449963 -46.344753 # 8 
510 1 8 -1.050000 0.599674 20.449965 -46.344753 # 8 
511 1 8 -1.050000 -0.847299 21.896938 -44.298424 # 8 
512 1 6 1.575000 0.651767 20.449966 -44.261585 # 5 
513 1 5 1.050000 -0.847299 21.949032 -46.381588 # 4 
514 1 7 1.575000 2.150834 20.449966 -47.441586 # 7 
515 1 8 -1.050000 2.150833 21.896938 -44.224751 # 8 
516 1 8 -1.050000 0.599674 23.448097 -46.418423 # 8 
517 1 7 1.575000 2.150833 23.448097 -45.321587 # 7 
518 1 8 -1.050000 3.701993 23.448097 -46.418423 # 8 
519 1 8 -1.050000 2.150834 24.999256 -44.224751 # 8 
520 1 5 1.050000 5.148965 24.947163 -46.381588 # 4 
521 1 5 1.050000 3.649899 26.446228 -44.261585 # 4 
522 1 8 -1.050000 5.148966 24.999256 -44.298424 # 8 
523 1 8 -1.050000 3.701993 26.446228 -46.344753 # 8 
524 1 8 -1.050000 6.595939 26.446228 -46.344753 # 8 
525 1 8 -1.050000 5.148966 27.893202 -44.298424 # 8 
526 1 6 1.575000 6.648033 26.446232 -44.261585 # 5 
527 1 6 1.575000 5.148968 27.945297 -46.381588 # 5 
528 1 7 1.575000 8.147099 26.446232 -47.441586 # 7 
529 1 5 1.050000 -12.839830 12.954634 -46.381588 # 4 
530 1 5 1.050000 -14.338896 14.453699 -44.261585 # 4 
531 1 8 -1.050000 -12.839830 13.006725 -44.298424 # 8 
532 1 8 -1.050000 -14.286804 14.453699 -46.344753 # 8 
533 1 8 -1.050000 -11.392857 14.453699 -46.344753 # 8 
534 1 8 -1.050000 -12.839830 15.900673 -44.298424 # 8 
535 1 6 1.575000 -11.340764 14.453700 -44.261585 # 5 
536 1 6 1.575000 -12.839829 15.952765 -46.381588 # 5 
537 1 7 1.575000 -9.841698 14.453699 -47.441586 # 7 
538 1 8 -1.050000 -9.841697 15.900672 -44.224751 # 8 
539 1 8 -1.050000 -11.392857 17.451832 -46.418423 # 8 
540 1 7 1.575000 -9.841698 17.451832 -45.321587 # 7 
541 1 8 -1.050000 -8.290537 17.451832 -46.418423 # 8 
542 1 8 -1.050000 -9.841698 19.002991 -44.224751 # 8 
543 1 5 1.050000 -6.843565 18.950899 -46.381588 # 4 
544 1 6 1.575000 -8.342630 20.449965 -44.261585 # 5 
545 1 8 -1.050000 -6.843565 19.002991 -44.298424 # 8 
546 1 8 -1.050000 -8.290539 20.449965 -46.344753 # 8 
547 1 8 -1.050000 -5.396591 20.449965 -46.344753 # 8 
548 1 8 -1.050000 -6.843565 21.896938 -44.298424 # 8 
549 1 6 1.575000 -5.344499 20.449966 -44.261585 # 5 
550 1 5 1.050000 -6.843564 21.949032 -46.381588 # 4 
551 1 7 1.575000 -3.845432 20.449965 -47.441586 # 7 
552 1 8 -1.050000 -3.845430 21.896938 -44.224751 # 8 
553 1 8 -1.050000 -5.396590 23.448097 -46.418423 # 8 
554 1 7 1.575000 -3.845431 23.448097 -45.321587 # 7 