LAMMPS data file via write_data, version 29 Sep 2021, timestep = 1764225

4320 atoms
10 atom types
144 bonds
6 bond types
216 angles
6 angle types
0 dihedrals
2 dihedral types
36 impropers
2 improper types

0.239999 25.679999000000002 xlo xhi
0.239999 25.679999000000002 ylo yhi
-32.391176 66.805898 zlo zhi

Masses

1 12.011
2 1.008
3 15.9994
4 15.9994
5 1.008
6 55.845
7 55.845
8 15.9994
9 15.9994
10 1.008

Pair Coeffs # lj/cut/coul/long

1 0.0988 3.31521
2 0.0161 2.4473
3 0.1463 3.04812
4 0.093 3.24287
5 0.0047 0.537925
6 9.0298e-07 4.9062
7 9.0298e-07 4.9062
8 0.1554 3.16554
9 0.1554 3.16554
10 0 0

Bond Coeffs # harmonic

1 361.8 1.105
2 652.57 1.218
3 383.13 1.351
4 563.51 0.973
5 554.135 1
6 0 2.08

Angle Coeffs # harmonic

1 51.617 106.55
2 65.93 123.65
3 65.262 109.49
4 115.745 122.1
5 118.817 130.25
6 30 109.47

Dihedral Coeffs # fourier

1 1 2.3 2 180
2 2 2.3 2 180 1.9 1 0

Improper Coeffs # cvff

1 10.5 -1 2
2 10.5 -1 2

Atoms # full

33 0 8 -1.05 4.284343 6.676275 -16.74947126245 0 0 0
54 0 8 -1.05 2.2380129999999996 8.722605 -16.74947126245 0 0 0
63 1 6 1.575 1.141178 9.81944 -15.652636262450002 0 0 0
76 2 7 1.575 2.2011779999999996 4.5194399999999995 -14.592636262450007 0 0 0
78 2 7 1.575 2.2011779999999996 6.63944 -16.712636262450005 0 0 0
82 0 9 -1 2.0881433318576823 4.635097132178085 -16.42545082742055 0 0 0
87 0 8 -1.05 2.2380129999999996 10.916274999999999 -14.555801262450004 0 0 0
96 0 8 -1.05 2.1643419999999995 6.602605 -14.629471262450004 0 0 0
476 0 1 0.731 1.2911104286043533 5.480984549768775 -19.188019260980482 0 0 0
477 0 2 -0.123 1.2449577113854005 5.535884523851954 -20.285388723903942 0 0 0
478 0 3 -0.804 2.0710662700622917 6.202200580176017 -18.580278881101858 0 0 0
479 0 3 -0.804 0.5720155861832996 4.700260076276831 -18.58097223391088 0 0 0
480 0 10 0.425 2.6236414426712367 4.100289747339792 -17.160059199601235 0 0 0
62 1 7 1.575 3.2611779999999992 7.699439999999999 -13.532636262450005 0 0 0
1920 0 10 0.425 2.623641442671236 12.580289747339792 -17.160059199601235 0 0 0
2934 0 8 -1.05 2.2380129999999996 0.24260500000000107 -16.74947126245 0 1 0
2943 1 6 1.575 1.141178 1.3394399999999997 -15.652636262450002 0 1 0
2967 0 8 -1.05 2.2380129999999996 2.4362749999999984 -14.555801262450004 0 1 0
2977 0 8 -1.05 4.284343 4.4826049999999995 -14.555801262450004 0 1 0
513 0 8 -1.05 12.764343 6.676275 -16.74947126245 0 0 0
525 0 8 -1.05 8.524343 10.916274999999999 -16.74947126245 0 0 0
534 0 8 -1.05 10.718013 8.722605 -16.74947126245 0 0 0
537 1 7 1.575 5.381178 5.57944 -15.652636262450002 0 0 0
543 1 6 1.575 9.621178 9.81944 -15.652636262450002 0 0 0
545 2 7 1.575 8.561178 4.5194399999999995 -16.712636262450005 0 0 0
549 2 7 1.575 6.441178 8.75944 -14.592636262450007 0 0 0
550 2 7 1.575 4.321178 10.879439999999999 -14.592636262450007 0 0 0
552 2 7 1.575 4.321178 8.75944 -16.712636262450005 0 0 0
553 2 7 1.575 8.561178 6.63944 -14.592636262450007 0 0 0
556 2 7 1.575 10.681178 4.5194399999999995 -14.592636262450007 0 0 0
558 2 7 1.575 10.681178 6.63944 -16.712636262450005 0 0 0
559 2 7 1.575 6.441178 10.879439999999999 -16.712636262450005 0 0 0
562 0 9 -1 10.568143331857684 4.635097132178086 -16.42545082742055 0 0 0
566 0 8 -1.05 4.358013 8.796275 -14.629471262450004 0 0 0
567 0 8 -1.05 10.718013 10.916274999999999 -14.555801262450004 0 0 0
570 0 8 -1.05 4.358013 10.842604 -16.67580126245 0 0 0
571 0 8 -1.05 8.524343 8.722605 -14.555801262450004 0 0 0
576 0 8 -1.05 10.644342 6.602605 -14.629471262450004 0 0 0
582 0 8 -1.05 8.598013 6.602605 -16.67580126245 0 0 0
584 0 8 -1.05 6.404343 10.842604 -14.629471262450004 0 0 0
585 0 8 -1.05 8.598013 4.556274999999999 -14.629471262450004 0 0 0
589 0 9 -1 6.326639213033288 8.875250320773867 -16.42602900159293 0 0 0
591 0 8 -1.05 6.478013000000001 6.676275 -14.555801262450004 0 0 0
946 0 1 0.731 5.472056668750083 9.737332378154116 -19.183265373133764 0 0 0
947 0 2 -0.123 5.348908807567197 9.8582651741283 -20.26902500996156 0 0 0
948 0 3 -0.804 6.282026109242331 10.427378904124337 -18.5813292361212 0 0 0
949 0 3 -0.804 4.783870273215199 8.924324802278901 -18.57966289166092 0 0 0
950 0 10 0.425 6.861021118046325 8.339734656448064 -17.161055428751617 0 0 0
956 0 1 0.731 9.771110428604361 5.480984549768781 -19.18801926098049 0 0 0
957 0 2 -0.123 9.724957711385398 5.535884523851955 -20.285388723903942 0 0 0
958 0 3 -0.804 10.551066270062291 6.202200580176016 -18.58027888110186 0 0 0
959 0 3 -0.804 9.052015586183298 4.700260076276823 -18.580972233910877 0 0 0
960 0 10 0.425 11.103641442671236 4.100289747339791 -17.160059199601235 0 0 0
540 1 6 1.575 7.5011779999999995 11.93944 -13.532636262450005 0 0 0
542 1 7 1.575 11.741178 7.699439999999999 -13.532636262450005 0 0 0
2400 0 10 0.425 11.103641442671236 12.580289747339792 -17.160059199601235 0 0 0
3385 0 8 -1.05 6.478013000000001 4.4826049999999995 -16.74947126245 0 1 0
3405 0 8 -1.05 8.524343 2.4362749999999984 -16.74947126245 0 1 0
3414 0 8 -1.05 10.718013 0.24260500000000107 -16.74947126245 0 1 0
3423 1 6 1.575 9.621178 1.3394399999999997 -15.652636262450002 0 1 0
3429 2 7 1.575 6.441178 0.27943999999999747 -14.592636262450007 0 1 0
3430 2 7 1.575 4.321178 2.3994399999999985 -14.592636262450007 0 1 0
3432 2 7 1.575 4.321178 0.27943999999999747 -16.712636262450005 0 1 0
3439 2 7 1.575 6.441178 2.3994399999999985 -16.712636262450005 0 1 0
3446 0 8 -1.05 4.358013 0.31627500000000097 -14.629471262450004 0 1 0
3447 0 8 -1.05 10.718013 2.4362749999999984 -14.555801262450004 0 1 0
3450 0 8 -1.05 4.358013 2.362604000000001 -16.67580126245 0 1 0
3451 0 8 -1.05 8.524343 0.24260500000000107 -14.555801262450004 0 1 0
3457 0 8 -1.05 12.764343 4.4826049999999995 -14.555801262450004 0 1 0
3464 0 8 -1.05 6.404343 2.362604000000001 -14.629471262450004 0 1 0
3469 0 9 -1 6.326639213033288 0.3952503207738685 -16.42602900159293 0 1 0
3826 0 1 0.731 5.472056668750094 1.2573323781541295 -19.183265373133768 0 1 0
3827 0 2 -0.123 5.348908807567194 1.378265174128298 -20.269025009961556 0 1 0
3828 0 3 -0.804 6.2820261092423255 1.9473789041243328 -18.581329236121203 0 1 0
3829 0 3 -0.804 4.783870273215193 0.44432480227889365 -18.579662891660913 0 1 0
3420 1 6 1.575 7.5011779999999995 3.459439999999997 -13.532636262450005 0 1 0
1030 2 7 1.575 12.801178 10.879439999999999 -14.592636262450007 0 0 0
1032 2 7 1.575 12.801178 8.75944 -16.712636262450005 0 0 0
1046 0 8 -1.05 12.838013 8.796275 -14.629471262450004 0 0 0
1050 0 8 -1.05 12.838013 10.842604 -16.67580126245 0 0 0
3930 0 8 -1.05 12.838013 2.362604000000001 -16.67580126245 0 1 0
3910 2 7 1.575 12.801178 2.3994399999999985 -14.592636262450007 0 1 0
3912 2 7 1.575 12.801178 0.27943999999999747 -16.712636262450005 0 1 0
3926 0 8 -1.05 12.838013 0.31627500000000097 -14.629471262450004 0 1 0
58 1 6 1.575 3.2611779999999992 11.93944 -9.292636262450003 0 0 0
59 1 7 1.575 1.141178 5.57944 -11.41263626245 0 0 0
67 2 7 1.575 2.2011779999999996 10.879439999999999 -12.472636262450003 0 0 0
68 2 6 1.05 2.2011779999999996 8.75944 -10.352636262450005 0 0 0
85 0 8 -1.05 4.284343 8.722605 -10.315801262450002 0 0 0
89 0 8 -1.05 4.284343 6.676275 -8.269472262450002 0 0 0
100 0 8 -1.05 2.1643419999999995 8.796275 -12.435801262450006 0 0 0
103 0 8 -1.05 2.2380129999999996 6.676275 -10.315801262450002 0 0 0
108 0 8 -1.05 4.284343 10.916274999999999 -12.509471262449999 0 0 0
110 0 8 -1.05 2.2380129999999996 8.722605 -8.269472262450002 0 0 0
112 0 8 -1.05 2.1643419999999995 10.842604 -10.389472262450006 0 0 0
119 1 7 1.575 1.141178 9.81944 -7.172635262450008 0 0 0
134 2 7 1.575 2.2011779999999996 6.63944 -8.232637262450005 0 0 0
138 0 8 -1.05 2.1643419999999995 4.556274999999999 -8.19580026245 0 0 0
115 1 6 1.575 1.141178 5.57944 -2.9326362624500035 0 0 0
118 1 7 1.575 3.2611779999999992 7.699439999999999 -5.052636262450001 0 0 0
123 2 7 1.575 2.2011779999999996 10.879439999999999 -3.992635262450001 0 0 0
132 2 6 1.05 2.2011779999999996 4.5194399999999995 -6.112636262450003 0 0 0
143 0 8 -1.05 2.2380129999999996 10.916274999999999 -6.075801262450007 0 0 0
152 0 8 -1.05 2.1643419999999995 6.602605 -6.14947126245 0 0 0
156 0 8 -1.05 2.1643419999999995 8.796275 -3.955800262450005 0 0 0
164 0 8 -1.05 4.284343 10.916274999999999 -4.029472262450007 0 0 0
2938 1 6 1.575 3.2611779999999992 3.459439999999997 -9.292636262450003 0 1 0
2947 2 7 1.575 2.2011779999999996 2.3994399999999985 -12.472636262450003 0 1 0
2948 2 6 1.05 2.2011779999999996 0.27943999999999747 -10.352636262450005 0 1 0
2965 0 8 -1.05 4.284343 0.24260500000000107 -10.315801262450002 0 1 0
2973 0 8 -1.05 2.2380129999999996 4.4826049999999995 -12.509471262449999 0 1 0
2980 0 8 -1.05 2.1643419999999995 0.31627500000000097 -12.435801262450006 0 1 0
2988 0 8 -1.05 4.284343 2.4362749999999984 -12.509471262449999 0 1 0
2990 0 8 -1.05 2.2380129999999996 0.24260500000000107 -8.269472262450002 0 1 0
2992 0 8 -1.05 2.1643419999999995 2.362604000000001 -10.389472262450006 0 1 0
2999 1 7 1.575 1.141178 1.3394399999999997 -7.172635262450008 0 1 0
3003 2 7 1.575 2.2011779999999996 2.3994399999999985 -3.992635262450001 0 1 0
3023 0 8 -1.05 2.2380129999999996 2.4362749999999984 -6.075801262450007 0 1 0
3029 0 8 -1.05 2.2380129999999996 4.4826049999999995 -4.029472262450007 0 1 0
3033 0 8 -1.05 4.284343 4.4826049999999995 -6.075801262450007 0 1 0
3036 0 8 -1.05 2.1643419999999995 0.31627500000000097 -3.955800262450005 0 1 0
3044 0 8 -1.05 4.284343 2.4362749999999984 -4.029472262450007 0 1 0
538 1 6 1.575 11.741178 11.93944 -9.292636262450003 0 0 0
539 1 7 1.575 9.621178 5.57944 -11.41263626245 0 0 0
541 1 7 1.575 5.381178 9.81944 -11.41263626245 0 0 0
544 1 7 1.575 7.5011779999999995 7.699439999999999 -9.292636262450003 0 0 0
546 2 7 1.575 6.441178 6.63944 -12.472636262450003 0 0 0
547 2 7 1.575 10.681178 10.879439999999999 -12.472636262450003 0 0 0
548 2 6 1.05 10.681178 8.75944 -10.352636262450005 0 0 0
551 2 6 1.05 4.321178 6.63944 -10.352636262450005 0 0 0
554 2 6 1.05 8.561178 10.879439999999999 -10.352636262450005 0 0 0
555 2 6 1.05 6.441178 4.5194399999999995 -10.352636262450005 0 0 0
557 2 7 1.575 4.321178 4.5194399999999995 -12.472636262450003 0 0 0
560 2 7 1.575 8.561178 8.75944 -12.472636262450003 0 0 0
563 0 8 -1.05 8.524343 6.676275 -12.509471262449999 0 0 0
564 0 8 -1.05 8.598013 10.842604 -12.435801262450006 0 0 0
565 0 8 -1.05 12.764343 8.722605 -10.315801262450002 0 0 0
568 0 8 -1.05 6.404343 6.602605 -10.389472262450006 0 0 0
569 0 8 -1.05 12.764343 6.676275 -8.269472262450002 0 0 0
572 0 8 -1.05 8.598013 8.796275 -10.389472262450006 0 0 0
574 0 8 -1.05 6.404343 4.556274999999999 -12.435801262450006 0 0 0
575 0 8 -1.05 6.478013000000001 10.916274999999999 -10.315801262450002 0 0 0
578 0 8 -1.05 4.358013 4.556274999999999 -10.389472262450006 0 0 0
579 0 8 -1.05 6.478013000000001 8.722605 -12.509471262449999 0 0 0
580 0 8 -1.05 10.644342 8.796275 -12.435801262450006 0 0 0
581 0 8 -1.05 8.524343 10.916274999999999 -8.269472262450002 0 0 0
583 0 8 -1.05 10.718013 6.676275 -10.315801262450002 0 0 0
587 0 8 -1.05 4.358013 6.602605 -12.435801262450006 0 0 0
588 0 8 -1.05 12.764343 10.916274999999999 -12.509471262449999 0 0 0
590 0 8 -1.05 10.718013 8.722605 -8.269472262450002 0 0 0
592 0 8 -1.05 10.644342 10.842604 -10.389472262450006 0 0 0
593 1 7 1.575 5.381178 5.57944 -7.172635262450008 0 0 0
599 1 7 1.575 9.621178 9.81944 -7.172635262450008 0 0 0
601 2 7 1.575 8.561178 4.5194399999999995 -8.232637262450005 0 0 0
608 2 7 1.575 4.321178 8.75944 -8.232637262450005 0 0 0
614 2 7 1.575 10.681178 6.63944 -8.232637262450005 0 0 0
615 2 7 1.575 6.441178 10.879439999999999 -8.232637262450005 0 0 0
618 0 8 -1.05 10.644342 4.556274999999999 -8.19580026245 0 0 0
626 0 8 -1.05 4.358013 10.842604 -8.19580026245 0 0 0
638 0 8 -1.05 8.598013 6.602605 -8.19580026245 0 0 0
645 0 8 -1.05 6.404343 8.796275 -8.19580026245 0 0 0
595 1 6 1.575 9.621178 5.57944 -2.9326362624500035 0 0 0
596 1 7 1.575 7.5011779999999995 11.93944 -5.052636262450001 0 0 0
597 1 6 1.575 5.381178 9.81944 -2.9326362624500035 0 0 0
598 1 7 1.575 11.741178 7.699439999999999 -5.052636262450001 0 0 0
602 2 7 1.575 6.441178 6.63944 -3.992635262450001 0 0 0
603 2 7 1.575 10.681178 10.879439999999999 -3.992635262450001 0 0 0
605 2 6 1.05 6.441178 8.75944 -6.112636262450003 0 0 0
606 2 6 1.05 4.321178 10.879439999999999 -6.112636262450003 0 0 0
609 2 6 1.05 8.561178 6.63944 -6.112636262450003 0 0 0
612 2 6 1.05 10.681178 4.5194399999999995 -6.112636262450003 0 0 0
613 2 7 1.575 4.321178 4.5194399999999995 -3.992635262450001 0 0 0
616 2 7 1.575 8.561178 8.75944 -3.992635262450001 0 0 0
619 0 8 -1.05 8.524343 6.676275 -4.029472262450007 0 0 0
620 0 8 -1.05 8.598013 10.842604 -3.955800262450005 0 0 0
622 0 8 -1.05 4.358013 8.796275 -6.14947126245 0 0 0
623 0 8 -1.05 10.718013 10.916274999999999 -6.075801262450007 0 0 0
627 0 8 -1.05 8.524343 8.722605 -6.075801262450007 0 0 0
630 0 8 -1.05 6.404343 4.556274999999999 -3.955800262450005 0 0 0
632 0 8 -1.05 10.644342 6.602605 -6.14947126245 0 0 0
635 0 8 -1.05 6.478013000000001 8.722605 -4.029472262450007 0 0 0
636 0 8 -1.05 10.644342 8.796275 -3.955800262450005 0 0 0
640 0 8 -1.05 6.404343 10.842604 -6.14947126245 0 0 0
641 0 8 -1.05 8.598013 4.556274999999999 -6.14947126245 0 0 0
643 0 8 -1.05 4.358013 6.602605 -3.955800262450005 0 0 0
644 0 8 -1.05 12.764343 10.916274999999999 -4.029472262450007 0 0 0
647 0 8 -1.05 6.478013000000001 6.676275 -6.075801262450007 0 0 0
3418 1 6 1.575 11.741178 3.459439999999997 -9.292636262450003 0 1 0
3421 1 7 1.575 5.381178 1.3394399999999997 -11.41263626245 0 1 0
3427 2 7 1.575 10.681178 2.3994399999999985 -12.472636262450003 0 1 0
3428 2 6 1.05 10.681178 0.27943999999999747 -10.352636262450005 0 1 0
3434 2 6 1.05 8.561178 2.3994399999999985 -10.352636262450005 0 1 0
3440 2 7 1.575 8.561178 0.27943999999999747 -12.472636262450003 0 1 0
3441 0 8 -1.05 6.478013000000001 4.4826049999999995 -8.269472262450002 0 1 0
3444 0 8 -1.05 8.598013 2.362604000000001 -12.435801262450006 0 1 0
3445 0 8 -1.05 12.764343 0.24260500000000107 -10.315801262450002 0 1 0
3452 0 8 -1.05 8.598013 0.31627500000000097 -10.389472262450006 0 1 0
3453 0 8 -1.05 10.718013 4.4826049999999995 -12.509471262449999 0 1 0
3455 0 8 -1.05 6.478013000000001 2.4362749999999984 -10.315801262450002 0 1 0
3459 0 8 -1.05 6.478013000000001 0.24260500000000107 -12.509471262449999 0 1 0
3460 0 8 -1.05 10.644342 0.31627500000000097 -12.435801262450006 0 1 0
3461 0 8 -1.05 8.524343 2.4362749999999984 -8.269472262450002 0 1 0
3466 0 8 -1.05 8.524343 4.4826049999999995 -10.315801262450002 0 1 0
3468 0 8 -1.05 12.764343 2.4362749999999984 -12.509471262449999 0 1 0
3470 0 8 -1.05 10.718013 0.24260500000000107 -8.269472262450002 0 1 0
3472 0 8 -1.05 10.644342 2.362604000000001 -10.389472262450006 0 1 0
3479 1 7 1.575 9.621178 1.3394399999999997 -7.172635262450008 0 1 0
3488 2 7 1.575 4.321178 0.27943999999999747 -8.232637262450005 0 1 0
3495 2 7 1.575 6.441178 2.3994399999999985 -8.232637262450005 0 1 0
3506 0 8 -1.05 4.358013 2.362604000000001 -8.19580026245 0 1 0
3525 0 8 -1.05 6.404343 0.31627500000000097 -8.19580026245 0 1 0
3476 1 7 1.575 7.5011779999999995 3.459439999999997 -5.052636262450001 0 1 0
3477 1 6 1.575 5.381178 1.3394399999999997 -2.9326362624500035 0 1 0
3483 2 7 1.575 10.681178 2.3994399999999985 -3.992635262450001 0 1 0
3485 2 6 1.05 6.441178 0.27943999999999747 -6.112636262450003 0 1 0
3486 2 6 1.05 4.321178 2.3994399999999985 -6.112636262450003 0 1 0
3496 2 7 1.575 8.561178 0.27943999999999747 -3.992635262450001 0 1 0
3500 0 8 -1.05 8.598013 2.362604000000001 -3.955800262450005 0 1 0
3502 0 8 -1.05 4.358013 0.31627500000000097 -6.14947126245 0 1 0
3503 0 8 -1.05 10.718013 2.4362749999999984 -6.075801262450007 0 1 0
3507 0 8 -1.05 8.524343 0.24260500000000107 -6.075801262450007 0 1 0
3509 0 8 -1.05 10.718013 4.4826049999999995 -4.029472262450007 0 1 0
3513 0 8 -1.05 12.764343 4.4826049999999995 -6.075801262450007 0 1 0
3515 0 8 -1.05 6.478013000000001 0.24260500000000107 -4.029472262450007 0 1 0
3516 0 8 -1.05 10.644342 0.31627500000000097 -3.955800262450005 0 1 0
3520 0 8 -1.05 6.404343 2.362604000000001 -6.14947126245 0 1 0
3524 0 8 -1.05 12.764343 2.4362749999999984 -4.029472262450007 0 1 0
1031 2 6 1.05 12.801178 6.63944 -10.352636262450005 0 0 0
1037 2 7 1.575 12.801178 4.5194399999999995 -12.472636262450003 0 0 0
1058 0 8 -1.05 12.838013 4.556274999999999 -10.389472262450006 0 0 0
1067 0 8 -1.05 12.838013 6.602605 -12.435801262450006 0 0 0
1088 2 7 1.575 12.801178 8.75944 -8.232637262450005 0 0 0
1106 0 8 -1.05 12.838013 10.842604 -8.19580026245 0 0 0
1086 2 6 1.05 12.801178 10.879439999999999 -6.112636262450003 0 0 0
1093 2 7 1.575 12.801178 4.5194399999999995 -3.992635262450001 0 0 0
1102 0 8 -1.05 12.838013 8.796275 -6.14947126245 0 0 0
1123 0 8 -1.05 12.838013 6.602605 -3.955800262450005 0 0 0
3968 2 7 1.575 12.801178 0.27943999999999747 -8.232637262450005 0 1 0
3986 0 8 -1.05 12.838013 2.362604000000001 -8.19580026245 0 1 0
3966 2 6 1.05 12.801178 2.3994399999999985 -6.112636262450003 0 1 0
3982 0 8 -1.05 12.838013 0.31627500000000097 -6.14947126245 0 1 0
114 1 6 1.575 3.2611779999999992 11.93944 -0.8126372624500036 0 0 0
124 2 6 1.05 2.2011779999999996 8.75944 -1.8726362624500013 0 0 0
141 0 8 -1.05 4.284343 8.722605 -1.8358012624499978 0 0 0
159 0 8 -1.05 2.2380129999999996 6.676275 -1.8358012624499978 0 0 0
168 0 8 -1.05 2.1643419999999995 10.842604 -1.9094732624499997 0 0 0
145 0 8 -1.05 4.284343 6.676275 0.21052973754999726 0 0 0
166 0 8 -1.05 2.2380129999999996 8.722605 0.21052973754999726 0 0 0
171 1 6 1.575 1.141178 5.57944 5.547363737549997 0 0 0
174 1 7 1.575 3.2611779999999992 7.699439999999999 3.4273627375499984 0 0 0
175 1 6 1.575 1.141178 9.81944 1.3073637375499985 0 0 0
179 2 7 1.575 2.2011779999999996 10.879439999999999 4.487363737549998 0 0 0
180 2 6 1.05 2.2011779999999996 8.75944 6.60736473755 0 0 0
188 2 6 1.05 2.2011779999999996 4.5194399999999995 2.367363737549997 0 0 0
190 2 7 1.575 2.2011779999999996 6.63944 0.24736473754999366 0 0 0
194 0 8 -1.05 2.1643419999999995 4.556274999999999 0.2841987375499926 0 0 0
197 0 8 -1.05 4.284343 8.722605 6.644199737549997 0 0 0
199 0 8 -1.05 2.2380129999999996 10.916274999999999 2.404197737549996 0 0 0
208 0 8 -1.05 2.1643419999999995 6.602605 2.3305287375499972 0 0 0
212 0 8 -1.05 2.1643419999999995 8.796275 4.524198737549998 0 0 0
215 0 8 -1.05 2.2380129999999996 6.676275 6.644199737549997 0 0 0
220 0 8 -1.05 4.284343 10.916274999999999 4.450529737549996 0 0 0
224 0 8 -1.05 2.1643419999999995 10.842604 6.570526737549997 0 0 0
2994 1 6 1.575 3.2611779999999992 3.459439999999997 -0.8126372624500036 0 1 0
3004 2 6 1.05 2.2011779999999996 0.27943999999999747 -1.8726362624500013 0 1 0
3021 0 8 -1.05 4.284343 0.24260500000000107 -1.8358012624499978 0 1 0
3048 0 8 -1.05 2.1643419999999995 2.362604000000001 -1.9094732624499997 0 1 0
3046 0 8 -1.05 2.2380129999999996 0.24260500000000107 0.21052973754999726 0 1 0
3055 1 6 1.575 1.141178 1.3394399999999997 1.3073637375499985 0 1 0
3059 2 7 1.575 2.2011779999999996 2.3994399999999985 4.487363737549998 0 1 0
3060 2 6 1.05 2.2011779999999996 0.27943999999999747 6.60736473755 0 1 0
3077 0 8 -1.05 4.284343 0.24260500000000107 6.644199737549997 0 1 0
3079 0 8 -1.05 2.2380129999999996 2.4362749999999984 2.404197737549996 0 1 0
3085 0 8 -1.05 2.2380129999999996 4.4826049999999995 4.450529737549996 0 1 0
3089 0 8 -1.05 4.284343 4.4826049999999995 2.404197737549996 0 1 0
3092 0 8 -1.05 2.1643419999999995 0.31627500000000097 4.524198737549998 0 1 0
3100 0 8 -1.05 4.284343 2.4362749999999984 4.450529737549996 0 1 0
3104 0 8 -1.05 2.1643419999999995 2.362604000000001 6.570526737549997 0 1 0
594 1 6 1.575 11.741178 11.93944 -0.8126372624500036 0 0 0
600 1 7 1.575 7.5011779999999995 7.699439999999999 -0.8126372624500036 0 0 0
604 2 6 1.05 10.681178 8.75944 -1.8726362624500013 0 0 0
607 2 6 1.05 4.321178 6.63944 -1.8726362624500013 0 0 0
610 2 6 1.05 8.561178 10.879439999999999 -1.8726362624500013 0 0 0
611 2 6 1.05 6.441178 4.5194399999999995 -1.8726362624500013 0 0 0
621 0 8 -1.05 12.764343 8.722605 -1.8358012624499978 0 0 0
624 0 8 -1.05 6.404343 6.602605 -1.9094732624499997 0 0 0
628 0 8 -1.05 8.598013 8.796275 -1.9094732624499997 0 0 0
631 0 8 -1.05 6.478013000000001 10.916274999999999 -1.8358012624499978 0 0 0
634 0 8 -1.05 4.358013 4.556274999999999 -1.9094732624499997 0 0 0
639 0 8 -1.05 10.718013 6.676275 -1.8358012624499978 0 0 0
648 0 8 -1.05 10.644342 10.842604 -1.9094732624499997 0 0 0
625 0 8 -1.05 12.764343 6.676275 0.21052973754999726 0 0 0
637 0 8 -1.05 8.524343 10.916274999999999 0.21052973754999726 0 0 0
646 0 8 -1.05 10.718013 8.722605 0.21052973754999726 0 0 0
649 1 6 1.575 5.381178 5.57944 1.3073637375499985 0 0 0
651 1 6 1.575 9.621178 5.57944 5.547363737549997 0 0 0
652 1 7 1.575 7.5011779999999995 11.93944 3.4273627375499984 0 0 0
653 1 7 1.575 5.381178 9.81944 5.547363737549997 0 0 0
654 1 7 1.575 11.741178 7.699439999999999 3.4273627375499984 0 0 0
655 1 6 1.575 9.621178 9.81944 1.3073637375499985 0 0 0
657 2 7 1.575 8.561178 4.5194399999999995 0.24736473754999366 0 0 0
658 2 7 1.575 6.441178 6.63944 4.487363737549998 0 0 0
659 2 7 1.575 10.681178 10.879439999999999 4.487363737549998 0 0 0
660 2 6 1.05 10.681178 8.75944 6.60736473755 0 0 0
661 2 6 1.05 6.441178 8.75944 2.367363737549997 0 0 0
662 2 6 1.05 4.321178 10.879439999999999 2.367363737549997 0 0 0
663 2 6 1.05 4.321178 6.63944 6.60736473755 0 0 0
664 2 7 1.575 4.321178 8.75944 0.24736473754999366 0 0 0
665 2 6 1.05 8.561178 6.63944 2.367363737549997 0 0 0
666 2 6 1.05 8.561178 10.879439999999999 6.60736473755 0 0 0
667 2 6 1.05 6.441178 4.5194399999999995 6.60736473755 0 0 0
668 2 6 1.05 10.681178 4.5194399999999995 2.367363737549997 0 0 0
669 2 7 1.575 4.321178 4.5194399999999995 4.487363737549998 0 0 0
670 2 7 1.575 10.681178 6.63944 0.24736473754999366 0 0 0
671 2 7 1.575 6.441178 10.879439999999999 0.24736473754999366 0 0 0
672 2 7 1.575 8.561178 8.75944 4.487363737549998 0 0 0
674 0 8 -1.05 10.644342 4.556274999999999 0.2841987375499926 0 0 0
675 0 8 -1.05 8.524343 6.676275 4.450529737549996 0 0 0
676 0 8 -1.05 8.598013 10.842604 4.524198737549998 0 0 0
677 0 8 -1.05 12.764343 8.722605 6.644199737549997 0 0 0
678 0 8 -1.05 4.358013 8.796275 2.3305287375499972 0 0 0
679 0 8 -1.05 10.718013 10.916274999999999 2.404197737549996 0 0 0
680 0 8 -1.05 6.404343 6.602605 6.570526737549997 0 0 0
682 0 8 -1.05 4.358013 10.842604 0.2841987375499926 0 0 0
683 0 8 -1.05 8.524343 8.722605 2.404197737549996 0 0 0
684 0 8 -1.05 8.598013 8.796275 6.570526737549997 0 0 0
686 0 8 -1.05 6.404343 4.556274999999999 4.524198737549998 0 0 0
687 0 8 -1.05 6.478013000000001 10.916274999999999 6.644199737549997 0 0 0
688 0 8 -1.05 10.644342 6.602605 2.3305287375499972 0 0 0
690 0 8 -1.05 4.358013 4.556274999999999 6.570526737549997 0 0 0
691 0 8 -1.05 6.478013000000001 8.722605 4.450529737549996 0 0 0
692 0 8 -1.05 10.644342 8.796275 4.524198737549998 0 0 0
694 0 8 -1.05 8.598013 6.602605 0.2841987375499926 0 0 0
695 0 8 -1.05 10.718013 6.676275 6.644199737549997 0 0 0
696 0 8 -1.05 6.404343 10.842604 2.3305287375499972 0 0 0
697 0 8 -1.05 8.598013 4.556274999999999 2.3305287375499972 0 0 0
699 0 8 -1.05 4.358013 6.602605 4.524198737549998 0 0 0
700 0 8 -1.05 12.764343 10.916274999999999 4.450529737549996 0 0 0
701 0 8 -1.05 6.404343 8.796275 0.2841987375499926 0 0 0
703 0 8 -1.05 6.478013000000001 6.676275 2.404197737549996 0 0 0
704 0 8 -1.05 10.644342 10.842604 6.570526737549997 0 0 0
3474 1 6 1.575 11.741178 3.459439999999997 -0.8126372624500036 0 1 0
3484 2 6 1.05 10.681178 0.27943999999999747 -1.8726362624500013 0 1 0
3490 2 6 1.05 8.561178 2.3994399999999985 -1.8726362624500013 0 1 0
3501 0 8 -1.05 12.764343 0.24260500000000107 -1.8358012624499978 0 1 0
3508 0 8 -1.05 8.598013 0.31627500000000097 -1.9094732624499997 0 1 0
3511 0 8 -1.05 6.478013000000001 2.4362749999999984 -1.8358012624499978 0 1 0
3522 0 8 -1.05 8.524343 4.4826049999999995 -1.8358012624499978 0 1 0
3528 0 8 -1.05 10.644342 2.362604000000001 -1.9094732624499997 0 1 0
3497 0 8 -1.05 6.478013000000001 4.4826049999999995 0.21052973754999726 0 1 0
3517 0 8 -1.05 8.524343 2.4362749999999984 0.21052973754999726 0 1 0
3526 0 8 -1.05 10.718013 0.24260500000000107 0.21052973754999726 0 1 0
3532 1 7 1.575 7.5011779999999995 3.459439999999997 3.4273627375499984 0 1 0
3533 1 7 1.575 5.381178 1.3394399999999997 5.547363737549997 0 1 0
3535 1 6 1.575 9.621178 1.3394399999999997 1.3073637375499985 0 1 0
3539 2 7 1.575 10.681178 2.3994399999999985 4.487363737549998 0 1 0
3540 2 6 1.05 10.681178 0.27943999999999747 6.60736473755 0 1 0
3541 2 6 1.05 6.441178 0.27943999999999747 2.367363737549997 0 1 0
3542 2 6 1.05 4.321178 2.3994399999999985 2.367363737549997 0 1 0
3544 2 7 1.575 4.321178 0.27943999999999747 0.24736473754999366 0 1 0
3546 2 6 1.05 8.561178 2.3994399999999985 6.60736473755 0 1 0
3551 2 7 1.575 6.441178 2.3994399999999985 0.24736473754999366 0 1 0
3552 2 7 1.575 8.561178 0.27943999999999747 4.487363737549998 0 1 0
3556 0 8 -1.05 8.598013 2.362604000000001 4.524198737549998 0 1 0
3557 0 8 -1.05 12.764343 0.24260500000000107 6.644199737549997 0 1 0
3558 0 8 -1.05 4.358013 0.31627500000000097 2.3305287375499972 0 1 0
3559 0 8 -1.05 10.718013 2.4362749999999984 2.404197737549996 0 1 0
3562 0 8 -1.05 4.358013 2.362604000000001 0.2841987375499926 0 1 0
3563 0 8 -1.05 8.524343 0.24260500000000107 2.404197737549996 0 1 0
3564 0 8 -1.05 8.598013 0.31627500000000097 6.570526737549997 0 1 0
3565 0 8 -1.05 10.718013 4.4826049999999995 4.450529737549996 0 1 0
3567 0 8 -1.05 6.478013000000001 2.4362749999999984 6.644199737549997 0 1 0
3569 0 8 -1.05 12.764343 4.4826049999999995 2.404197737549996 0 1 0
3571 0 8 -1.05 6.478013000000001 0.24260500000000107 4.450529737549996 0 1 0
3572 0 8 -1.05 10.644342 0.31627500000000097 4.524198737549998 0 1 0
3576 0 8 -1.05 6.404343 2.362604000000001 2.3305287375499972 0 1 0
3578 0 8 -1.05 8.524343 4.4826049999999995 6.644199737549997 0 1 0
3580 0 8 -1.05 12.764343 2.4362749999999984 4.450529737549996 0 1 0
3581 0 8 -1.05 6.404343 0.31627500000000097 0.2841987375499926 0 1 0
3584 0 8 -1.05 10.644342 2.362604000000001 6.570526737549997 0 1 0
1087 2 6 1.05 12.801178 6.63944 -1.8726362624500013 0 0 0
1114 0 8 -1.05 12.838013 4.556274999999999 -1.9094732624499997 0 0 0
1142 2 6 1.05 12.801178 10.879439999999999 2.367363737549997 0 0 0
1143 2 6 1.05 12.801178 6.63944 6.60736473755 0 0 0
1144 2 7 1.575 12.801178 8.75944 0.24736473754999366 0 0 0
1149 2 7 1.575 12.801178 4.5194399999999995 4.487363737549998 0 0 0
1158 0 8 -1.05 12.838013 8.796275 2.3305287375499972 0 0 0
1162 0 8 -1.05 12.838013 10.842604 0.2841987375499926 0 0 0
1170 0 8 -1.05 12.838013 4.556274999999999 6.570526737549997 0 0 0
1179 0 8 -1.05 12.838013 6.602605 4.524198737549998 0 0 0
4022 2 6 1.05 12.801178 2.3994399999999985 2.367363737549997 0 1 0
4024 2 7 1.575 12.801178 0.27943999999999747 0.24736473754999366 0 1 0
4038 0 8 -1.05 12.838013 0.31627500000000097 2.3305287375499972 0 1 0
4042 0 8 -1.05 12.838013 2.362604000000001 0.2841987375499926 0 1 0
170 1 7 1.575 3.2611779999999992 11.93944 7.66736273755 0 0 0
201 0 8 -1.05 4.284343 6.676275 8.690528737549997 0 0 0
222 0 8 -1.05 2.2380129999999996 8.722605 8.690528737549997 0 0 0
227 1 6 1.575 1.141178 5.57944 14.02736273755 0 0 0
230 1 6 1.575 3.2611779999999992 7.699439999999999 11.907364737549997 0 0 0
231 1 6 1.575 1.141178 9.81944 9.787365737549997 0 0 0
235 2 7 1.575 2.2011779999999996 10.879439999999999 12.967365737549997 0 0 0
244 2 6 1.05 2.2011779999999996 4.5194399999999995 10.84736273755 0 0 0
246 2 7 1.575 2.2011779999999996 6.63944 8.72736373755 0 0 0
250 0 8 -1.05 2.1643419999999995 4.556274999999999 8.764198737549997 0 0 0
255 0 8 -1.05 2.2380129999999996 10.916274999999999 10.884197737549997 0 0 0
264 0 8 -1.05 2.1643419999999995 6.602605 10.810527737549997 0 0 0
268 0 8 -1.05 2.1643419999999995 8.796275 13.004200737549994 0 0 0
276 0 8 -1.05 4.284343 10.916274999999999 12.930526737549997 0 0 0
226 1 6 1.575 3.2611779999999992 11.93944 16.14736173755 0 0 0
236 2 6 1.05 2.2011779999999996 8.75944 15.087364737549997 0 0 0
253 0 8 -1.05 4.284343 8.722605 15.124199737549993 0 0 0
257 0 8 -1.05 4.284343 6.676275 17.170528737549994 0 0 0
271 0 8 -1.05 2.2380129999999996 6.676275 15.124199737549993 0 0 0
278 0 8 -1.05 2.2380129999999996 8.722605 17.170528737549994 0 0 0
280 0 8 -1.05 2.1643419999999995 10.842604 15.050525737549997 0 0 0
3050 1 7 1.575 3.2611779999999992 3.459439999999997 7.66736273755 0 1 0
3102 0 8 -1.05 2.2380129999999996 0.24260500000000107 8.690528737549997 0 1 0
3111 1 6 1.575 1.141178 1.3394399999999997 9.787365737549997 0 1 0
3115 2 7 1.575 2.2011779999999996 2.3994399999999985 12.967365737549997 0 1 0
3135 0 8 -1.05 2.2380129999999996 2.4362749999999984 10.884197737549997 0 1 0
3141 0 8 -1.05 2.2380129999999996 4.4826049999999995 12.930526737549997 0 1 0
3145 0 8 -1.05 4.284343 4.4826049999999995 10.884197737549997 0 1 0
3148 0 8 -1.05 2.1643419999999995 0.31627500000000097 13.004200737549994 0 1 0
3156 0 8 -1.05 4.284343 2.4362749999999984 12.930526737549997 0 1 0
3106 1 6 1.575 3.2611779999999992 3.459439999999997 16.14736173755 0 1 0
3116 2 6 1.05 2.2011779999999996 0.27943999999999747 15.087364737549997 0 1 0
3133 0 8 -1.05 4.284343 0.24260500000000107 15.124199737549993 0 1 0
3158 0 8 -1.05 2.2380129999999996 0.24260500000000107 17.170528737549994 0 1 0
3160 0 8 -1.05 2.1643419999999995 2.362604000000001 15.050525737549997 0 1 0
650 1 7 1.575 11.741178 11.93944 7.66736273755 0 0 0
656 1 7 1.575 7.5011779999999995 7.699439999999999 7.66736273755 0 0 0
681 0 8 -1.05 12.764343 6.676275 8.690528737549997 0 0 0
693 0 8 -1.05 8.524343 10.916274999999999 8.690528737549997 0 0 0
702 0 8 -1.05 10.718013 8.722605 8.690528737549997 0 0 0
705 1 6 1.575 5.381178 5.57944 9.787365737549997 0 0 0
707 1 6 1.575 9.621178 5.57944 14.02736273755 0 0 0
708 1 7 1.575 7.5011779999999995 11.93944 11.907364737549997 0 0 0
709 1 7 1.575 5.381178 9.81944 14.02736273755 0 0 0