LAMMPS data file via write_data, version 17 Feb 2022, timestep = 47

4320 atoms
10 atom types
144 bonds
6 bond types
216 angles
6 angle types
0 dihedrals
2 dihedral types
36 impropers
2 improper types

0.239999 25.679999000000002 xlo xhi
0.239999 25.679999000000002 ylo yhi
-32.391176 66.805898 zlo zhi

Masses

1 12.011
2 1.008
3 15.9994
4 15.9994
5 1.008
6 55.845
7 55.845
8 15.9994
9 15.9994
10 1.008

Pair Coeffs # lj/cut/coul/long

1 0.0988 3.31521
2 0.0161 2.4473
3 0.1463 3.04812
4 0.093 3.24287
5 0.0047 0.537925
6 9.0298e-07 4.9062
7 9.0298e-07 4.9062
8 0.1554 3.16554
9 0.1554 3.16554
10 0 0

Bond Coeffs # harmonic

1 361.8 1.105
2 652.57 1.218
3 383.13 1.351
4 563.51 0.973
5 554.135 1
6 0 2.08

Angle Coeffs # harmonic

1 51.617 106.55
2 65.93 123.65
3 65.262 109.49
4 115.745 122.1
5 118.817 130.25
6 30 109.47

Dihedral Coeffs # fourier

1 1 2.3 2 180
2 2 2.3 2 180 1.9 1 0

Improper Coeffs # cvff

1 10.5 -1 2
2 10.5 -1 2

Atoms # full

476 0 1 0.731 1.2266719185636328 5.501130121640248 -19.51411370354454 0 0 0
477 0 2 -0.123 1.2597677401323684 5.466934315779157 -20.610810532522816 0 0 0
478 0 3 -0.804 1.9615389438670998 6.269985626829342 -18.91643095268327 0 0 0
479 0 3 -0.804 0.4606866425373142 4.76447700750984 -18.914800479271122 0 0 0
3826 0 1 0.731 5.450306608417418 1.285385172612149 -19.51706546455137 0 1 0
3827 0 2 -0.123 5.478523710829218 1.2585685537892768 -20.614103678407826 0 1 0
3828 0 3 -0.804 6.188864482796288 2.048618861707412 -18.91702704167838 0 1 0
3829 0 3 -0.804 4.686302075966679 0.5449670072361915 -18.91920550260847 0 1 0
956 0 1 0.731 9.706671918563648 5.501130121640265 -19.514113703544552 0 0 0
957 0 2 -0.123 9.739767740132368 5.466934315779156 -20.610810532522823 0 0 0
958 0 3 -0.804 10.441538943867114 6.269985626829356 -18.91643095268327 0 0 0
959 0 3 -0.804 8.940686642537292 4.764477007509818 -18.91480047927109 0 0 0
4306 0 1 0.731 13.930306608417423 1.2853851726121592 -19.517065464551397 0 1 0
4307 0 2 -0.123 13.958523710829214 1.2585685537892723 -20.614103678407794 0 1 0
4308 0 3 -0.804 14.668864482796284 2.0486188617073995 -18.917027041678395 0 1 0
4309 0 3 -0.804 13.166302075966694 0.5449670072361983 -18.919205502608488 0 1 0
3346 0 1 0.731 22.410306608417425 1.2853851726121597 -19.517065464551422 -1 1 0
3347 0 2 -0.123 22.438523710829223 1.2585685537892701 -20.61410367840778 -1 1 0
3348 0 3 -0.804 23.148864482796288 2.048618861707401 -18.917027041678406 -1 1 0
3349 0 3 -0.804 21.646302075966695 0.5449670072362015 -18.919205502608516 -1 1 0
1436 0 1 0.731 18.18667191856365 5.501130121640274 -19.514113703544584 0 0 0
1437 0 2 -0.123 18.219767740132365 5.466934315779154 -20.610810532522795 0 0 0
1438 0 3 -0.804 18.921538943867102 6.269985626829341 -18.9164309526833 0 0 0
1439 0 3 -0.804 17.420686642537287 4.764477007509817 -18.9148004792711 0 0 0
946 0 1 0.731 5.450306608417398 9.765385172612143 -19.51706546455142 0 0 0
947 0 2 -0.123 5.47852371082922 9.738568553789278 -20.614103678407773 0 0 0
948 0 3 -0.804 6.188864482796291 10.528618861707411 -18.917027041678406 0 0 0
949 0 3 -0.804 4.6863020759666965 9.024967007236196 -18.919205502608495 0 0 0
1916 0 1 0.731 1.226671918563626 13.98113012164026 -19.514113703544577 0 0 0
1917 0 2 -0.123 1.2597677401323604 13.946934315779151 -20.610810532522784 0 0 0
1918 0 3 -0.804 1.9615389438671151 14.749985626829341 -18.91643095268329 0 0 0
1919 0 3 -0.804 0.4606866425373248 13.244477007509827 -18.914800479271143 0 0 0
2396 0 1 0.731 9.70667191856364 13.981130121640254 -19.51411370354455 0 0 0
2397 0 2 -0.123 9.739767740132367 13.946934315779153 -20.61081053252281 0 0 0
2398 0 3 -0.804 10.441538943867108 14.749985626829352 -18.91643095268327 0 0 0
2399 0 3 -0.804 8.940686642537305 13.244477007509829 -18.91480047927112 0 0 0
1426 0 1 0.731 13.930306608417384 9.765385172612127 -19.517065464551443 0 0 0
1427 0 2 -0.123 13.95852371082922 9.738568553789278 -20.614103678407766 0 0 0
1428 0 3 -0.804 14.6688644827963 10.52861886170741 -18.917027041678402 0 0 0
1429 0 3 -0.804 13.166302075966701 9.0249670072362 -18.91920550260849 0 0 0
466 0 1 0.731 22.41030660841741 9.765385172612172 -19.51706546455144 -1 0 0
467 0 2 -0.123 22.438523710829212 9.73856855378927 -20.61410367840775 -1 0 0
468 0 3 -0.804 23.14886448279628 10.528618861707377 -18.91702704167842 -1 0 0
469 0 3 -0.804 21.646302075966712 9.024967007236194 -18.919205502608524 -1 0 0
2876 0 1 0.731 18.186671918563658 13.981130121640286 -19.514113703544606 0 0 0
2877 0 2 -0.123 18.219767740132358 13.94693431577916 -20.610810532522766 0 0 0
2878 0 3 -0.804 18.921538943867102 14.749985626829332 -18.916430952683317 0 0 0
2879 0 3 -0.804 17.42068664253729 13.244477007509808 -18.914800479271133 0 0 0
3356 0 1 0.731 1.226671918563684 22.4611301216403 -19.514113703544542 0 0 0
3357 0 2 -0.123 1.2597677401323573 22.426934315779153 -20.61081053252283 0 0 0
3358 0 3 -0.804 1.961538943867099 23.22998562682935 -18.91643095268324 0 0 0
3359 0 3 -0.804 0.46068664253728403 21.72447700750982 -18.9148004792711 0 0 0
2386 0 1 0.731 5.450306608417399 18.245385172612153 -19.517065464551408 0 0 0
2387 0 2 -0.123 5.478523710829216 18.21856855378927 -20.614103678407787 0 0 0
2388 0 3 -0.804 6.188864482796293 19.00861886170742 -18.917027041678377 0 0 0
2389 0 3 -0.804 4.686302075966703 17.5049670072362 -18.919205502608527 0 0 0
3836 0 1 0.731 9.706671918563663 22.461130121640267 -19.51411370354454 0 0 0
3837 0 2 -0.123 9.739767740132367 22.426934315779153 -20.61081053252283 0 0 0
3838 0 3 -0.804 10.441538943867114 23.229985626829368 -18.91643095268327 0 0 0
3839 0 3 -0.804 8.940686642537276 21.724477007509822 -18.91480047927109 0 0 0
2866 0 1 0.731 13.930306608417427 18.245385172612146 -19.51706546455141 0 0 0
2867 0 2 -0.123 13.958523710829212 18.21856855378928 -20.614103678407783 0 0 0
2868 0 3 -0.804 14.668864482796284 19.008618861707415 -18.917027041678413 0 0 0
2869 0 3 -0.804 13.166302075966676 17.50496700723619 -18.919205502608502 0 0 0
1906 0 1 0.731 22.41030660841745 18.245385172612192 -19.51706546455146 -1 0 0
1907 0 2 -0.123 22.438523710829205 18.218568553789275 -20.61410367840774 -1 0 0
1908 0 3 -0.804 23.148864482796295 19.00861886170741 -18.917027041678416 -1 0 0
1909 0 3 -0.804 21.64630207596668 17.504967007236175 -18.919205502608527 -1 0 0
4316 0 1 0.731 18.186671918563658 22.461130121640245 -19.514113703544556 0 0 0
4317 0 2 -0.123 18.219767740132365 22.42693431577916 -20.610810532522805 0 0 0
4318 0 3 -0.804 18.921538943867102 23.229985626829354 -18.916430952683292 0 0 0
4319 0 3 -0.804 17.420686642537294 21.72447700750985 -18.914800479271133 0 0 0
33 0 8 -1.05 4.130813821711794 6.836266092432273 -16.552055717715557 0 0 0
76 2 7 1.575 2.2015378555444842 4.52145563628175 -14.604585935674427 0 0 0
78 2 7 1.575 2.163669161569797 6.734106595786058 -17.09389534083375 0 0 0
82 0 9 -1 2.100961937368784 4.624833207051102 -16.55053023305539 0 0 0
96 0 8 -1.05 2.087256223314273 6.502643146474112 -14.378986534767305 0 0 0
480 0 10 0.425 2.6999201763084875 4.025752657593239 -17.146409321162587 0 0 0
62 1 7 1.575 3.267921731983026 7.695829542892391 -13.518224888018397 0 0 0
2934 0 8 -1.05 2.2904736352256654 25.63205221625153 -16.590041702935057 0 0 0
2943 1 6 1.575 1.1005871006480903 1.3829254409467038 -15.723636018927339 0 1 0
2967 0 8 -1.05 2.2699044469343153 2.4738651889362506 -14.459719184742312 0 1 0
2977 0 8 -1.05 4.249181510739033 4.453408515801643 -14.459908724311179 0 1 0
537 1 7 1.575 5.338982182998392 5.623715222078546 -15.723801053428623 0 0 0
545 2 7 1.575 8.469283510423274 4.560212987451693 -17.09467886965178 0 0 0
553 2 7 1.575 8.581717606475344 6.621438629345024 -14.60867697934666 0 0 0
582 0 8 -1.05 8.72049228232987 6.483485655713848 -16.510879212960297 0 0 0
585 0 8 -1.05 8.700865788511505 4.636169933749272 -14.3786840979894 0 0 0
591 0 8 -1.05 6.510030943754063 6.71472812847796 -14.461866690569016 0 0 0
950 0 10 0.425 6.933111899692991 8.272005850810185 -17.15624162782974 0 0 0
3385 0 8 -1.05 6.532654780294795 4.433557730868537 -16.587855697293964 0 1 0
3405 0 8 -1.05 8.368338420522697 2.5942140317477533 -16.54934203498719 0 1 0
3429 2 7 1.575 6.441166881791423 0.2813383037841025 -14.610195775908755 0 1 0
3430 2 7 1.575 4.34077334738828 2.381730181592567 -14.606906257295535 0 1 0
3432 2 7 1.575 4.225982859564943 0.32446362483948776 -17.09774430569764 0 1 0
3439 2 7 1.575 6.399933654247574 2.4975520319211904 -17.09210442402232 0 1 0
3446 0 8 -1.05 4.460299261943071 0.39639843006357345 -14.379996626761917 0 1 0
3450 0 8 -1.05 4.475585179941756 2.2478803103138563 -16.50921660527886 0 1 0
3451 0 8 -1.05 8.488468167601097 25.65288604095762 -14.461999923980764 0 0 0
3464 0 8 -1.05 6.326543605946482 2.2626991326958037 -14.381467122948926 0 1 0
3469 0 9 -1 6.335368196751076 0.3889379907659791 -16.557185423391527 0 1 0
3420 1 6 1.575 7.5070993894714775 3.454949359400817 -13.519316023540375 0 1 0
59 1 7 1.575 1.145743928452515 5.576436230120821 -11.433375312065113 0 0 0
2947 2 7 1.575 2.193618966858388 2.3799915277529466 -12.436559937694557 0 1 0
2973 0 8 -1.05 2.310101290935646 4.412751797389101 -12.4801716506111 0 1 0
2980 0 8 -1.05 2.1192400073071185 0.36305823762197703 -12.44174714810469 0 1 0
2988 0 8 -1.05 4.228130964180601 2.4944983772392284 -12.49078399450511 0 1 0
546 2 7 1.575 6.433817675018407 6.62046333072114 -12.438129807348163 0 0 0
557 2 7 1.575 4.342793432532141 4.52871357793308 -12.436649494392256 0 0 0
563 0 8 -1.05 8.467691171419766 6.734954460413384 -12.491552854511333 0 0 0
574 0 8 -1.05 6.359758315099054 4.603036769214396 -12.441944498679453 0 0 0
587 0 8 -1.05 4.416572058138495 6.546190603868458 -12.438835862036651 0 0 0
3421 1 7 1.575 5.386220041813551 1.3359303551081638 -11.433091576849389 0 1 0
3440 2 7 1.575 8.581905221270683 0.28879687901184736 -12.438171224444504 0 1 0
3444 0 8 -1.05 8.656076584876201 2.306223815278691 -12.439187230010877 0 1 0
3459 0 8 -1.05 6.549675847782992 25.613021723869874 -12.481761019349433 0 0 0
513 0 8 -1.05 12.61081382171185 6.836266092432243 -16.552055717715533 0 0 0
556 2 7 1.575 10.681537855544512 4.521455636281722 -14.604585935674471 0 0 0
558 2 7 1.575 10.643669161569767 6.7341065957860495 -17.093895340833743 0 0 0
562 0 9 -1 10.580961937368773 4.624833207051127 -16.550530233055365 0 0 0
576 0 8 -1.05 10.567256223314619 6.502643146474456 -14.378986534767117 0 0 0
960 0 10 0.425 11.179920176308514 4.025752657593211 -17.14640932116262 0 0 0
542 1 7 1.575 11.747921731982542 7.69582954289189 -13.518224888018409 0 0 0
3414 0 8 -1.05 10.770473635226043 25.632052216251175 -16.590041702935277 0 0 0
3423 1 6 1.575 9.58058710064758 1.3829254409472318 -15.723636018927317 0 1 0
3447 0 8 -1.05 10.749904446934337 2.473865188936223 -14.459719184742301 0 1 0
3457 0 8 -1.05 12.729181510739044 4.453408515801631 -14.459908724311182 0 1 0
3930 0 8 -1.05 12.955585179941782 2.247880310313831 -16.509216605278844 0 1 0
3910 2 7 1.575 12.820773347388313 2.3817301815925673 -14.60690625729552 0 1 0
3912 2 7 1.575 12.705982859564859 0.3244636248394773 -17.09774430569759 0 1 0
3926 0 8 -1.05 12.94029926194333 0.39639843006383596 -14.379996626762066 0 1 0
539 1 7 1.575 9.625743928452536 5.576436230120823 -11.433375312065182 0 0 0
3427 2 7 1.575 10.673618966858383 2.379991527752966 -12.436559937694582 0 1 0
3453 0 8 -1.05 10.790101290935645 4.412751797389094 -12.480171650611064 0 1 0
3460 0 8 -1.05 10.599240007307108 0.3630582376219984 -12.441747148104673 0 1 0
3468 0 8 -1.05 12.708130964180599 2.49449837723922 -12.490783994505128 0 1 0
1037 2 7 1.575 12.822793432532142 4.528713577933091 -12.436649494392272 0 0 0
1067 0 8 -1.05 12.8965720581385 6.546190603868478 -12.438835862036646 0 0 0
1017 1 7 1.575 13.81898218299829 5.623715222078644 -15.7238010534286 0 0 0
1025 2 7 1.575 16.949283510423275 4.560212987451705 -17.094678869651737 0 0 0
1033 2 7 1.575 17.061717606475327 6.621438629345072 -14.608676979346628 0 0 0
1062 0 8 -1.05 17.20049228232987 6.483485655713848 -16.510879212960376 0 0 0
1065 0 8 -1.05 17.180865788511085 4.636169933748873 -14.378684097989186 0 0 0
1071 0 8 -1.05 14.990030943754046 6.7147281284779545 -14.461866690569027 0 0 0
1430 0 10 0.425 15.413111899692963 8.272005850810213 -17.15624162782971 0 0 0
3865 0 8 -1.05 15.01265478029487 4.433557730868429 -16.587855697294025 0 1 0
3885 0 8 -1.05 16.84833842052262 2.5942140317477973 -16.54934203498723 0 1 0
3909 2 7 1.575 14.921166881791413 0.28133830378414815 -14.610195775908716 0 1 0
3919 2 7 1.575 14.8799336542476 2.4975520319212374 -17.092104424022306 0 1 0
3931 0 8 -1.05 16.96846816760106 25.65288604095761 -14.461999923980786 0 0 0
3944 0 8 -1.05 14.806543605946091 2.2626991326954125 -14.381467122949157 0 1 0
3949 0 9 -1 14.815368196751098 0.3889379907659641 -16.55718542339156 0 1 0
3900 1 6 1.575 15.987099389472082 3.454949359401384 -13.519316023540364 0 1 0
1026 2 7 1.575 14.91381767501845 6.6204633307211225 -12.438129807348165 0 0 0
1043 0 8 -1.05 16.947691171419734 6.734954460413391 -12.49155285451132 0 0 0
1054 0 8 -1.05 14.839758315099022 4.6030367692143885 -12.44194449867945 0 0 0
3901 1 7 1.575 13.866220041813586 1.3359303551081665 -11.43309157684937 0 1 0
3920 2 7 1.575 17.061905221270745 0.2887968790118571 -12.438171224444478 0 1 0
3924 0 8 -1.05 17.13607658487615 2.306223815278676 -12.43918723001089 0 1 0
3939 0 8 -1.05 15.029675847782958 25.613021723869892 -12.481761019349443 0 0 0
57 1 7 1.575 22.298982182998117 5.623715222078707 -15.723801053428527 -1 0 0
65 2 7 1.575 25.42928351042322 4.560212987451643 -17.09467886965175 -1 0 0
73 2 7 1.575 25.541717606475366 6.6214386293449845 -14.608676979346626 -1 0 0
102 0 8 -1.05 0.24049228232987474 6.483485655713837 -16.510879212960276 0 0 0
105 0 8 -1.05 25.66086578851189 4.63616993374965 -14.378684097989627 -1 0 0
111 0 8 -1.05 23.47003094375411 6.7147281284779785 -14.461866690569032 -1 0 0
470 0 10 0.425 23.893111899692975 8.272005850810194 -17.15624162782974 -1 0 0
2905 0 8 -1.05 23.492654780295062 4.433557730868313 -16.58785569729409 -1 1 0
2925 0 8 -1.05 25.32833842052238 2.594214031748104 -16.54934203498737 -1 1 0
2949 2 7 1.575 23.401166881791386 0.28133830378402447 -14.610195775908725 -1 1 0
2950 2 7 1.575 21.30077334738816 2.381730181592618 -14.606906257295469 -1 1 0
2952 2 7 1.575 21.185982859564852 0.3244636248394714 -17.097744305697532 -1 1 0
2959 2 7 1.575 23.359933654247566 2.497552031921215 -17.092104424022256 -1 1 0
2966 0 8 -1.05 21.420299261942915 0.3963984300633865 -14.37999662676184 -1 1 0
2970 0 8 -1.05 21.435585179941793 2.2478803103138443 -16.50921660527896 -1 1 0
2971 0 8 -1.05 25.448468167601106 25.652886040957647 -14.46199992398078 -1 0 0
2984 0 8 -1.05 23.28654360594688 2.2626991326961647 -14.381467122948747 -1 1 0
2989 0 9 -1 23.295368196751085 0.3889379907660069 -16.557185423391562 -1 1 0
2940 1 6 1.575 24.467099389470906 3.454949359400291 -13.519316023540327 -1 1 0
993 0 8 -1.05 21.090813821711862 6.836266092432272 -16.552055717715543 0 0 0
1036 2 7 1.575 19.16153785554457 4.521455636281655 -14.60458593567445 0 0 0
1038 2 7 1.575 19.123669161569744 6.734106595786091 -17.093895340833665 0 0 0
1042 0 9 -1 19.060961937368727 4.624833207051182 -16.55053023305538 0 0 0
1056 0 8 -1.05 19.04725622331494 6.502643146474789 -14.37898653476696 0 0 0
1440 0 10 0.425 19.659920176308564 4.025752657593163 -17.146409321162647 0 0 0
1022 1 7 1.575 20.22792173198211 7.695829542891508 -13.51822488801842 0 0 0
3894 0 8 -1.05 19.250473635226047 25.63205221625115 -16.590041702935302 0 0 0
3903 1 6 1.575 18.06058710064765 1.3829254409472238 -15.723636018927262 0 1 0
3927 0 8 -1.05 19.22990444693432 2.4738651889362075 -14.459719184742323 0 1 0
3937 0 8 -1.05 21.209181510739093 4.453408515801664 -14.459908724311209 0 1 0
66 2 7 1.575 23.393817675018337 6.620463330721109 -12.438129807348119 -1 0 0
77 2 7 1.575 21.30279343253206 4.528713577933047 -12.436649494392269 -1 0 0
83 0 8 -1.05 25.42769117141978 6.734954460413377 -12.49155285451137 -1 0 0
94 0 8 -1.05 23.319758315099133 4.603036769214408 -12.44194449867948 -1 0 0
107 0 8 -1.05 21.376572058138567 6.546190603868494 -12.438835862036646 -1 0 0
2941 1 7 1.575 22.346220041813492 1.3359303551081525 -11.433091576849394 -1 1 0
2960 2 7 1.575 25.54190522127064 0.2887968790118393 -12.438171224444462 -1 1 0
2964 0 8 -1.05 25.616076584876225 2.3062238152787105 -12.4391872300109 -1 1 0
2979 0 8 -1.05 23.509675847783036 25.613021723869874 -12.481761019349442 -1 0 0
1019 1 7 1.575 18.105743928452558 5.576436230120814 -11.43337531206521 0 0 0
3907 2 7 1.575 19.15361896685841 2.3799915277529853 -12.436559937694597 0 1 0
3933 0 8 -1.05 19.27010129093565 4.412751797389107 -12.480171650611041 0 1 0
3940 0 8 -1.05 19.07924000730708 0.36305823762197387 -12.441747148104676 0 1 0
3948 0 8 -1.05 21.188130964180626 2.4944983772392293 -12.490783994505097 0 1 0
54 0 8 -1.05 2.2904736352259247 8.672052216251226 -16.59004170293524 0 0 0
63 1 6 1.575 1.1005871006477612 9.862925440947107 -15.723636018927266 0 0 0
87 0 8 -1.05 2.2699044469343117 10.953865188936208 -14.45971918474233 0 0 0
1920 0 10 0.425 2.6999201763085243 12.505752657593206 -17.14640932116261 0 0 0
525 0 8 -1.05 8.368338420522662 11.074214031747797 -16.549342034987212 0 0 0
549 2 7 1.575 6.441166881791472 8.761338303784115 -14.610195775908755 0 0 0
550 2 7 1.575 4.340773347388233 10.861730181592657 -14.606906257295496 0 0 0
552 2 7 1.575 4.225982859564908 8.804463624839542 -17.09774430569757 0 0 0
559 2 7 1.575 6.399933654247563 10.977552031921215 -17.09210442402227 0 0 0
566 0 8 -1.05 4.460299261942647 8.876398430063114 -14.379996626761686 0 0 0
570 0 8 -1.05 4.475585179941765 10.72788031031384 -16.509216605278947 0 0 0
571 0 8 -1.05 8.488468167601098 8.69288604095759 -14.461999923980779 0 0 0
584 0 8 -1.05 6.326543605946761 10.742699132696053 -14.381467122948804 0 0 0
589 0 9 -1 6.3353681967510465 8.868937990766009 -16.55718542339153 0 0 0
540 1 6 1.575 7.507099389471125 11.934949359400484 -13.519316023540375 0 0 0
67 2 7 1.575 2.1936189668583963 10.859991527752998 -12.436559937694572 0 0 0
100 0 8 -1.05 2.1192400073070954 8.843058237621921 -12.441747148104698 0 0 0
108 0 8 -1.05 4.228130964180606 10.97449837723922 -12.49078399450509 0 0 0
541 1 7 1.575 5.386220041813539 9.815930355108197 -11.433091576849423 0 0 0
560 2 7 1.575 8.581905221270672 8.768796879011893 -12.438171224444503 0 0 0
564 0 8 -1.05 8.656076584876212 10.786223815278687 -12.439187230010878 0 0 0
579 0 8 -1.05 6.549675847783002 8.653021723869829 -12.481761019349419 0 0 0
97 0 8 -1.05 4.249181510739062 12.933408515801652 -14.459908724311195 0 0 0
1473 0 8 -1.05 4.130813821711766 15.316266092432327 -16.55205571771558 0 0 0
1516 2 7 1.575 2.201537855544472 13.001455636281742 -14.604585935674415 0 0 0
1518 2 7 1.575 2.163669161569745 15.214106595786122 -17.093895340833683 0 0 0
1522 0 9 -1 2.100961937368758 13.104833207051144 -16.550530233055387 0 0 0
1536 0 8 -1.05 2.087256223314499 14.982643146474294 -14.378986534767217 0 0 0
1502 1 7 1.575 3.267921731982733 16.17582954289213 -13.518224888018402 0 0 0
505 0 8 -1.05 6.532654780294885 12.913557730868463 -16.58785569729402 0 0 0
1977 1 7 1.575 5.338982182998312 14.10371522207858 -15.723801053428566 0 0 0
1985 2 7 1.575 8.469283510423248 13.04021298745168 -17.094678869651762 0 0 0
1993 2 7 1.575 8.581717606475399 15.10143862934499 -14.608676979346644 0 0 0
2022 0 8 -1.05 8.720492282329866 14.96348565571384 -16.510879212960283 0 0 0
2025 0 8 -1.05 8.700865788511743 13.116169933749513 -14.378684097989533 0 0 0
2031 0 8 -1.05 6.5100309437540735 15.194728128477973 -14.461866690569027 0 0 0
2390 0 10 0.425 6.933111899692977 16.7520058508102 -17.156241627829726 0 0 0
93 0 8 -1.05 2.310101290935667 12.892751797389085 -12.480171650611087 0 0 0
1499 1 7 1.575 1.145743928452467 14.056436230120836 -11.433375312065175 0 0 0
1986 2 7 1.575 6.4338176750183775 15.100463330721105 -12.438129807348162 0 0 0
1997 2 7 1.575 4.342793432532105 13.00871357793306 -12.43664949439227 0 0 0
2003 0 8 -1.05 8.467691171419768 15.214954460413388 -12.49155285451134 0 0 0
2014 0 8 -1.05 6.3597583150990875 13.083036769214416 -12.44194449867946 0 0 0
2027 0 8 -1.05 4.416572058138526 15.02619060386848 -12.438835862036644 0 0 0
534 0 8 -1.05 10.770473635226008 8.672052216251174 -16.59004170293528 0 0 0
543 1 6 1.575 9.58058710064761 9.862925440947217 -15.723636018927293 0 0 0
567 0 8 -1.05 10.749904446934321 10.95386518893621 -14.459719184742314 0 0 0
2400 0 10 0.425 11.179920176308507 12.505752657593227 -17.146409321162608 0 0 0
1030 2 7 1.575 12.820773347388341 10.86173018159264 -14.606906257295499 0 0 0
1032 2 7 1.575 12.705982859564877 8.80446362483953 -17.09774430569758 0 0 0
1046 0 8 -1.05 12.940299261943016 8.876398430063494 -14.379996626761876 0 0 0
1050 0 8 -1.05 12.955585179941773 10.727880310313813 -16.509216605278887 0 0 0
547 2 7 1.575 10.673618966858399 10.85999152775298 -12.436559937694584 0 0 0
580 0 8 -1.05 10.599240007307111 8.843058237621955 -12.441747148104685 0 0 0
588 0 8 -1.05 12.708130964180596 10.974498377239199 -12.490783994505113 0 0 0
577 0 8 -1.05 12.729181510739027 12.933408515801606 -14.459908724311184 0 0 0
1953 0 8 -1.05 12.610813821711924 15.316266092432128 -16.55205571771549 0 0 0
1996 2 7 1.575 10.681537855544505 13.00145563628178 -14.604585935674448 0 0 0
1998 2 7 1.575 10.643669161569793 15.214106595786056 -17.093895340833736 0 0 0
2002 0 9 -1 10.580961937368764 13.104833207051117 -16.55053023305537 0 0 0
2016 0 8 -1.05 10.567256223314262 14.982643146474109 -14.378986534767304 0 0 0
1982 1 7 1.575 11.747921731983103 16.1758295428924 -13.518224888018437 0 0 0
573 0 8 -1.05 10.79010129093562 12.892751797389101 -12.480171650611073 0 0 0
1979 1 7 1.575 9.62574392845255 14.056436230120818 -11.433375312065175 0 0 0
2477 2 7 1.575 12.82279343253218 13.008713577933111 -12.436649494392276 0 0 0
2507 0 8 -1.05 12.896572058138462 15.026190603868459 -12.43883586203664 0 0 0
1005 0 8 -1.05 16.848338420522754 11.07421403174764 -16.549342034987156 0 0 0
1029 2 7 1.575 14.921166881791464 8.761338303784218 -14.610195775908721 0 0 0
1039 2 7 1.575 14.879933654247592 10.977552031921286 -17.09210442402226 0 0 0
1051 0 8 -1.05 16.968468167601078 8.692886040957571 -14.46199992398079 0 0 0
1064 0 8 -1.05 14.806543605946056 10.742699132695362 -14.381467122949191 0 0 0
1069 0 9 -1 14.815368196751061 8.868937990765984 -16.557185423391537 0 0 0
1020 1 6 1.575 15.987099389472162 11.934949359401505 -13.519316023540382 0 0 0
1021 1 7 1.575 13.866220041813596 9.815930355108211 -11.433091576849396 0 0 0
1040 2 7 1.575 17.061905221270713 8.768796879011909 -12.438171224444504 0 0 0
1044 0 8 -1.05 17.136076584876168 10.786223815278642 -12.439187230010875 0 0 0
1059 0 8 -1.05 15.029675847782954 8.653021723869845 -12.481761019349435 0 0 0
985 0 8 -1.05 15.012654780294962 12.913557730868312 -16.587855697294103 0 0 0
2457 1 7 1.575 13.818982182998159 14.103715222078831 -15.72380105342857 0 0 0
2465 2 7 1.575 16.949283510423257 13.04021298745175 -17.0946788696517 0 0 0
2473 2 7 1.575 17.061717606475387 15.101438629345108 -14.608676979346605 0 0 0
2502 0 8 -1.05 17.200492282329858 14.963485655713825 -16.510879212960393 0 0 0
2505 0 8 -1.05 17.18086578851105 13.116169933748814 -14.378684097989149 0 0 0
2511 0 8 -1.05 14.990030943754034 15.194728128477939 -14.461866690569034 0 0 0
2870 0 10 0.425 15.413111899692987 16.75200585081019 -17.15624162782972 0 0 0
2466 2 7 1.575 14.913817675018473 15.100463330721148 -12.438129807348195 0 0 0
2483 0 8 -1.05 16.94769117141973 15.214954460413376 -12.491552854511303 0 0 0
2494 0 8 -1.05 14.83975831509902 13.083036769214361 -12.44194449867945 0 0 0
45 0 8 -1.05 25.328338420522535 11.074214031747912 -16.549342034987284 -1 0 0
69 2 7 1.575 23.401166881791344 8.761338303784145 -14.610195775908709 -1 0 0
70 2 7 1.575 21.300773347388176 10.86173018159265 -14.606906257295442 -1 0 0
72 2 7 1.575 21.18598285956479 8.804463624839538 -17.097744305697518 -1 0 0
79 2 7 1.575 23.359933654247545 10.97755203192131 -17.092104424022214 -1 0 0
86 0 8 -1.05 21.42029926194325 8.876398430063654 -14.379996626762022 -1 0 0
90 0 8 -1.05 21.435585179941818 10.727880310313791 -16.50921660527897 -1 0 0
91 0 8 -1.05 25.4484681676011 8.692886040957575 -14.461999923980795 -1 0 0
104 0 8 -1.05 23.28654360594664 10.742699132695867 -14.381467122948889 -1 0 0
109 0 9 -1 23.295368196751063 8.868937990766002 -16.557185423391516 -1 0 0
60 1 6 1.575 24.46709938947118 11.934949359400651 -13.519316023540295 -1 0 0
1014 0 8 -1.05 19.25047363522626 8.672052216250934 -16.590041702935434 0 0 0
1023 1 6 1.575 18.060587100647354 9.862925440947535 -15.72363601892722 0 0 0
1047 0 8 -1.05 19.22990444693434 10.953865188936163 -14.459719184742333 0 0 0
2880 0 10 0.425 19.65992017630857 12.505752657593163 -17.14640932116265 0 0 0
61 1 7 1.575 22.3462200418135 9.815930355108232 -11.433091576849382 -1 0 0
80 2 7 1.575 25.541905221270667 8.768796879011926 -12.438171224444451 -1 0 0
84 0 8 -1.05 25.616076584876215 10.786223815278655 -12.439187230010887 -1 0 0
99 0 8 -1.05 23.50967584778304 8.653021723869816 -12.481761019349463 -1 0 0
1027 2 7 1.575 19.153618966858385 10.859991527753039 -12.436559937694595 0 0 0
1060 0 8 -1.05 19.079240007307135 8.843058237621932 -12.441747148104692 0 0 0
1068 0 8 -1.05 21.188130964180647 10.974498377239168 -12.490783994505101 0 0 0
25 0 8 -1.05 23.492654780295247 12.91355773086809 -16.587855697294234 -1 0 0
1497 1 7 1.575 22.298982182997836 14.10371522207907 -15.723801053428499 -1 0 0
1505 2 7 1.575 25.42928351042317 13.040212987451705 -17.09467886965169 -1 0 0
1513 2 7 1.575 25.54171760647527 15.101438629345047 -14.608676979346585 -1 0 0
1542 0 8 -1.05 0.24049228232992448 14.963485655713807 -16.51087921296035 0 0 0
1545 0 8 -1.05 25.66086578851173 13.11616993374944 -14.378684097989536 -1 0 0
1551 0 8 -1.05 23.470030943754132 15.194728128477934 -14.461866690569037 -1 0 0
1910 0 10 0.425 23.893111899693054 16.75200585081011 -17.156241627829797 -1 0 0
1057 0 8 -1.05 21.209181510739093 12.933408515801599 -14.459908724311202 0 0 0
2433 0 8 -1.05 21.090813821712057 15.316266092432024 -16.552055717715454 0 0 0
2476 2 7 1.575 19.16153785554458 13.001455636281776 -14.604585935674447 0 0 0
2478 2 7 1.575 19.12366916156977 15.214106595786076 -17.093895340833654 0 0 0
2482 0 9 -1 19.060961937368713 13.104833207051165 -16.550530233055373 0 0 0
2496 0 8 -1.05 19.047256223314626 14.982643146474455 -14.378986534767135 0 0 0
2462 1 7 1.575 20.22792173198272 16.17582954289208 -13.518224888018535 0 0 0
1506 2 7 1.575 23.393817675018322 15.100463330721167 -12.438129807348194 -1 0 0
1517 2 7 1.575 21.302793432532084 13.008713577933127 -12.436649494392297 -1 0 0
1523 0 8 -1.05 25.42769117141984 15.214954460413358 -12.49155285451133 -1 0 0
1534 0 8 -1.05 23.319758315099143 13.08303676921434 -12.441944498679483 -1 0 0
1547 0 8 -1.05 21.376572058138546 15.026190603868436 -12.438835862036608 -1 0 0
1053 0 8 -1.05 19.270101290935642 12.892751797389067 -12.480171650611041 0 0 0
2459 1 7 1.575 18.105743928452572 14.056436230120859 -11.433375312065246 0 0 0
1494 0 8 -1.05 2.2904736352263364 17.15205221625086 -16.59004170293547 0 0 0
1503 1 6 1.575 1.1005871006471217 18.342925440947592 -15.723636018927246 0 0 0
1527 0 8 -1.05 2.269904446934382 19.43386518893627 -14.459719184742312 0 0 0
1537 0 8 -1.05 4.2491815107390725 21.413408515801695 -14.459908724311175 0 0 0
2913 0 8 -1.05 4.130813821711794 23.796266092432326 -16.552055717715575 0 0 0
2956 2 7 1.575 2.2015378555442595 21.481455636281613 -14.604585935674434 0 0 0
2958 2 7 1.575 2.1636691615697687 23.69410659578595 -17.093895340833807 0 0 0
2962 0 9 -1 2.1009619373688215 21.58483320705111 -16.550530233055373 0 0 0
2976 0 8 -1.05 2.0872562233145247 23.462643146474406 -14.378986534767101 0 0 0
3360 0 10 0.425 2.6999201763084617 20.985752657593252 -17.146409321162576 0 0 0
2942 1 7 1.575 3.2679217319824567 24.655829542891766 -13.518224888018366 0 0 0
1945 0 8 -1.05 6.532654780294673 21.39355773086868 -16.587855697293886 0 0 0
1965 0 8 -1.05 8.36833842052266 19.554214031747797 -16.549342034987216 0 0 0
1989 2 7 1.575 6.441166881791442 17.24133830378408 -14.610195775908755 0 0 0
1990 2 7 1.575 4.340773347388199 19.341730181592595 -14.606906257295512 0 0 0
1992 2 7 1.575 4.225982859564816 17.284463624839525 -17.09774430569753 0 0 0
1999 2 7 1.575 6.399933654247566 19.45755203192116 -17.092104424022306 0 0 0
2006 0 8 -1.05 4.460299261942806 17.35639843006327 -14.379996626761779 0 0 0
2010 0 8 -1.05 4.475585179941766 19.20788031031385 -16.509216605278937 0 0 0
2011 0 8 -1.05 8.48846816760109 17.172886040957593 -14.46199992398077 0 0 0
2024 0 8 -1.05 6.326543605946804 19.222699132696125 -14.381467122948765 0 0 0
2029 0 9 -1 6.335368196751056 17.348937990765997 -16.557185423391537 0 0 0
1980 1 6 1.575 7.507099389471135 20.414949359400403 -13.519316023540433 0 0 0
3417 1 7 1.575 5.338982182998513 22.583715222078357 -15.723801053428671 0 0 0
3425 2 7 1.575 8.469283510423306 21.520212987451647 -17.094678869651787 0 0 0
3433 2 7 1.575 8.581717606475317 23.58143862934493 -14.608676979346683 0 0 0
3462 0 8 -1.05 8.720492282329856 23.443485655713886 -16.510879212960283 0 0 0
3465 0 8 -1.05 8.700865788511653 21.596169933749483 -14.378684097989515 0 0 0
3471 0 8 -1.05 6.51003094375407 23.674728128478012 -14.461866690569002 0 0 0
3830 0 10 0.425 6.933111899692951 25.232005850810218 -17.15624162782971 0 0 0
1507 2 7 1.575 2.193618966858319 19.33999152775289 -12.436559937694588 0 0 0
1533 0 8 -1.05 2.310101290935661 21.372751797389178 -12.480171650611094 0 0 0
1540 0 8 -1.05 2.119240007307165 17.323058237621957 -12.44174714810469 0 0 0
1548 0 8 -1.05 4.228130964180625 19.454498377239258 -12.490783994505092 0 0 0
2939 1 7 1.575 1.1457439284524693 22.536436230120714 -11.433375312065127 0 0 0
1981 1 7 1.575 5.386220041813523 18.295930355108144 -11.433091576849428 0 0 0
2000 2 7 1.575 8.581905221270699 17.248796879011884 -12.43817122444451 0 0 0
2004 0 8 -1.05 8.656076584876182 19.266223815278707 -12.439187230010873 0 0 0