LAMMPS data file via write_data, version 17 Feb 2022, timestep = 28223

2925 atoms
10 atom types
36 bonds
6 bond types
54 angles
6 angle types
0 dihedrals
2 dihedral types
9 impropers
2 improper types

0 25.44 xlo xhi
0 25.44 ylo yhi
-41.458422 32.908 zlo zhi

Masses

1 12.011
2 1.008
3 15.9994
4 15.9994
5 1.008
6 55.845
7 55.845
8 15.9994
9 15.9994
10 1.008

Pair Coeffs # lj/cut/coul/long

1 0.0988 3.31521
2 0.0161 2.4473
3 0.1463 3.04812
4 0.093 3.24287
5 0.0047 0.537925
6 9.0298e-07 4.9062
7 9.0298e-07 4.9062
8 0.1554 3.16554
9 0.1554 3.16554
10 0 0

Bond Coeffs # harmonic

1 361.8 1.105
2 652.57 1.218
3 383.13 1.351
4 563.51 0.973
5 554.135 1
6 0 2.08

Angle Coeffs # harmonic

1 51.617 106.55
2 65.93 123.65
3 65.262 109.49
4 115.745 122.1
5 118.817 130.25
6 30 109.47

Dihedral Coeffs # fourier

1 1 2.3 2 180
2 2 2.3 2 180 1.9 1 0

Improper Coeffs # cvff

1 10.5 -1 2
2 10.5 -1 2

Atoms # full

3 0 7 1.575 0.27386048688325204 1.2397694766831624 -29.444494552888806 0 0 0
73 0 7 1.575 4.496940760824314 5.497564423043437 -29.477201654238304 0 0 0
7 0 7 1.575 2.3817717657707265 3.368586365150827 -29.46861916655893 0 0 0
6 0 8 -1.05 2.2469321556996737 1.391472481724414 -29.43492033316699 0 0 0
70 0 8 -1.05 2.520768387838266 5.324862587415269 -29.542327771003702 0 0 0
4 0 8 -1.05 0.40401024990215695 3.221119709571694 -29.400853875061006 0 0 0
11 0 8 -1.05 4.336861866932535 3.517448497637374 -29.508340758696967 0 0 0
10 0 7 1.575 3.4809902727237354 0.1748602857643305 -28.671234080202005 0 0 0
13 0 6 1.05 4.556475891595149 3.360733912141681 -27.53895663450018 0 0 0
68 0 6 1.05 2.3324035998330803 5.54492958069092 -27.586061221677447 0 0 0
1 0 8 -1.05 0.20367980338120806 1.1837133141641976 -27.35989731009355 0 0 0
9 0 8 -1.05 2.4512011643633675 3.4431540274536676 -27.379621131036465 0 0 0
64 0 8 -1.05 0.24407469882155447 5.507107124942777 -27.245119156231965 0 0 0
14 0 8 -1.05 4.626707640211952 1.2077320113378645 -27.355282414668213 0 0 0
71 0 8 -1.05 4.403838830633761 5.418125468034723 -27.370984347619007 0 0 0
74 0 8 -1.05 4.594817745155418 7.456381760803255 -29.409374157086127 0 0 0
61 0 8 -1.05 0.07277636693810681 7.803382413490473 -29.59746096389611 0 0 0
67 0 8 -1.05 2.3656208024108576 7.642873839851114 -27.265586194197137 0 0 0
63 0 6 1.05 0.3277916835315836 7.550328456928169 -27.649191428541094 0 0 0
76 0 8 -1.05 6.451489771107104 5.593247388278391 -29.467412482109793 0 0 0
20 0 8 -1.05 6.724064470178553 1.0571912320300276 -29.565780568353563 0 0 0
17 0 8 -1.05 6.6765149226191145 3.280403423323604 -27.41819973021137 0 0 0
80 0 7 1.575 7.704633070245155 4.449031048113537 -28.66197861748268 0 0 0
18 0 7 1.575 6.636170444693639 1.321592635119756 -27.680228529443664 0 0 0
77 0 6 1.05 6.626070116361197 7.621797882700514 -29.761062610567187 0 0 0
79 0 8 -1.05 6.765455114868152 7.780981029447783 -27.14446343979601 0 0 0
75 0 7 1.575 5.535412412621678 6.560688306864115 -26.3929733468588 0 0 0
5 0 7 1.575 1.307923031928927 2.341503190541245 -26.36537411794685 0 0 0
66 0 8 -1.05 2.219095500652873 5.6227325954608345 -25.058378811023914 0 0 0
15 0 8 -1.05 4.561015895389771 3.202526419979001 -25.17862068872674 0 0 0
408 0 7 1.575 3.4590168852731282 4.429004859767001 -24.271748979323714 0 0 0
362 0 6 1.05 0.23631877915173016 3.351888179951044 -23.167705868763747 0 0 0
367 0 7 1.575 2.3680469331113017 1.2550618014375217 -23.226964270412378 0 0 0
12 0 7 1.575 4.496060518284832 1.234093719709885 -25.41346598629399 0 0 0
62 0 7 1.575 0.23452682851161172 5.482683846451977 -25.304224142088625 0 0 0
411 0 8 -1.05 4.606746765890932 5.473165302997957 -23.050572851400332 0 0 0
366 0 8 -1.05 2.3839796672128775 3.288520015261891 -23.011422667718403 0 0 0
369 0 8 -1.05 4.349821232022592 1.199082794510031 -23.06707631437828 0 0 0
8 0 8 -1.05 2.4640430243968123 1.256451321838637 -25.16652873020373 0 0 0
403 0 8 -1.05 0.13757587273300798 5.407441585243297 -23.05749604699176 0 0 0
2 0 8 -1.05 0.1814522941923965 3.4512868185415266 -25.181156605420238 0 0 0
363 0 8 -1.05 0.37012009979301475 1.245269500004912 -23.10071002386959 0 0 0
65 0 8 -1.05 0.3654065841379153 7.47339025354324 -25.053787645446803 0 0 0
69 0 7 1.575 2.367413847630097 7.604862299545491 -25.346092512371904 0 0 0
410 0 6 1.05 4.5051396168992275 7.579709809176258 -23.198675936122402 0 0 0
72 0 8 -1.05 4.363028408503706 7.595710647210143 -25.182630442045852 0 0 0
407 0 8 -1.05 2.4244991524371002 7.74751240654733 -22.996699968015804 0 0 0
16 0 8 -1.05 6.449139193364439 1.3223931352961273 -25.140272934587244 0 0 0
374 0 7 1.575 7.710568597446271 0.19628871793707922 -24.314096243926148 0 0 0
415 0 7 1.575 6.609865781989177 5.4752715601125335 -23.213886669559287 0 0 0
19 0 6 1.05 6.62747321470306 3.3841279169231777 -25.432518255171484 0 0 0
373 0 8 -1.05 6.76241139114062 3.5074626814164613 -22.90842382708032 0 0 0
78 0 8 -1.05 6.6049255109651215 5.476448891186227 -25.13372972548085 0 0 0
414 0 8 -1.05 6.657565838011419 7.499134747009375 -23.001734034151085 0 0 0
23 0 6 1.05 8.747759148718265 1.2563426361143413 -29.92153894608805 0 0 0
27 0 7 1.575 10.823089236740561 3.3616212059384405 -29.62124120135744 0 0 0
26 0 8 -1.05 10.758899297696647 1.4132717427704133 -29.567930850258968 0 0 0
90 0 8 -1.05 10.936344106289106 5.312907182176993 -29.43044095388429 0 0 0
24 0 8 -1.05 8.886837813352136 3.270740640390007 -29.534993255797357 0 0 0
30 0 7 1.575 11.895440768580826 0.20919582032584091 -28.671621861230268 0 0 0
88 0 7 1.575 10.844715927086066 5.523896044706571 -27.523884424812575 0 0 0
21 0 8 -1.05 8.570428100469107 1.111345306008669 -27.183990747739525 0 0 0
29 0 8 -1.05 10.945068187021157 3.46735858872833 -27.376576149372244 0 0 0
84 0 8 -1.05 8.808024845118181 5.557409285917264 -27.407864932403243 0 0 0
81 0 8 -1.05 8.665003268602495 7.82247665109573 -29.36418026838323 0 0 0
87 0 8 -1.05 10.808564183168972 7.544197291773169 -27.367635059514242 0 0 0
83 0 7 1.575 8.749210564788635 7.5866738919275365 -27.460602124371924 0 0 0
25 0 7 1.575 9.786688347984672 2.325665651529239 -26.386877373318825 0 0 0
86 0 8 -1.05 10.750288461383088 5.535817813906681 -25.264964863327076 0 0 0
422 0 7 1.575 11.91011677302197 4.420502437729783 -24.296521749974016 0 0 0
376 0 7 1.575 8.750000940162115 3.3538327457299832 -23.166880060929593 0 0 0
381 0 7 1.575 10.851906853844238 1.269290801883808 -23.179872244107315 0 0 0
82 0 6 1.05 8.700705824012015 5.456586532492607 -25.411957259792914 0 0 0
380 0 8 -1.05 10.790351403633288 3.308478540972188 -23.076633526837213 0 0 0
28 0 8 -1.05 10.867531266635837 1.2643433031948537 -25.115098536600872 0 0 0
417 0 8 -1.05 8.60420698770319 5.35156170054929 -22.948664780210727 0 0 0
22 0 8 -1.05 8.711519052301568 3.3731545833128704 -25.099690646121598 0 0 0
377 0 8 -1.05 8.81498618078019 1.3116940667762884 -23.0903787269534 0 0 0
85 0 8 -1.05 8.853632231548707 7.522786163345732 -25.275110263710395 0 0 0
89 0 6 1.05 10.909588162324381 7.581822520615512 -25.351420143531605 0 0 0
421 0 8 -1.05 10.911873329495219 7.743319904272422 -22.993933184029792 0 0 0
99 0 8 -1.05 15.20867293079895 7.736879329802257 -27.4504259727147 0 0 0
97 0 7 1.575 15.073571330437897 7.591835267646984 -29.662621073861228 0 0 0
93 0 6 1.05 12.953586851883657 5.506510613656317 -29.830966365868676 0 0 0
31 0 8 -1.05 12.775523721834928 3.4844643389343335 -29.511460442996547 0 0 0
33 0 7 1.575 12.997856537475721 3.355910303031817 -27.62105076945897 0 0 0
34 0 8 -1.05 12.921966860213933 1.3610036487805335 -27.416680902177745 0 0 0
91 0 8 -1.05 12.822860764610367 5.3352455798171485 -27.220982285032175 0 0 0
38 0 6 1.05 15.039210849716984 1.280041901242072 -27.512062564590124 0 0 0
100 0 7 1.575 16.13839734791994 4.455080881325203 -28.60359545776045 0 0 0
37 0 8 -1.05 14.993662348634011 3.4233197916587925 -27.316487492828557 0 0 0
40 0 8 -1.05 15.25376448823389 1.133646844072432 -29.49191515516506 0 0 0
94 0 8 -1.05 13.132888966386364 7.5273665402171215 -29.4924859923385 0 0 0
96 0 8 -1.05 14.990308263233704 5.651708765428661 -29.492954333876675 0 0 0
428 0 8 -1.05 15.104964502170837 7.601492898729193 -22.972460323715108 0 0 0
95 0 7 1.575 14.066012904167648 6.560366744430538 -26.483580070766788 0 0 0
35 0 8 -1.05 13.120981433454821 3.2896892922995775 -25.190574258942434 0 0 0
32 0 6 1.05 12.961631130545998 1.2257595000890151 -25.432675399371544 0 0 0
425 0 8 -1.05 12.961066414981072 5.499253707662555 -23.01980090260166 0 0 0
383 0 8 -1.05 12.838087218580545 1.125342160949272 -22.96431976730995 0 0 0
98 0 8 -1.05 15.180292850565278 5.438216209605888 -25.2838736187433 0 0 0
387 0 8 -1.05 15.188094659898711 3.47745810036314 -23.17780309035864 0 0 0
39 0 7 1.575 15.096997385710416 3.392032060907658 -25.36253483331644 0 0 0
429 0 6 1.05 15.077613813295581 5.530186407012423 -23.28666350752741 0 0 0
388 0 7 1.575 16.14399197488097 0.18803670440113077 -24.30158444994704 0 0 0
36 0 8 -1.05 15.0311385243011 1.4169616803117355 -25.187873014812837 0 0 0
424 0 6 1.05 12.99027718524148 7.570093436892431 -23.276557550152788 0 0 0
92 0 8 -1.05 13.022499851901857 7.704281428187417 -25.261798131961868 0 0 0
60 0 8 -1.05 23.756161034217172 1.0930260707763484 -29.518791311853196 0 0 0
116 0 8 -1.05 23.447631574574828 5.648522720694791 -29.409893427166004 0 0 0
120 0 7 1.575 24.63938938965432 4.428087764911347 -28.573052027954112 0 0 0
58 0 6 1.05 23.537253447124836 1.3114437472493885 -27.555542573106056 0 0 0
57 0 8 -1.05 23.59241314496169 3.3932563471157544 -27.243375770836895 0 0 0
117 0 7 1.575 23.572895680884596 7.618728249486839 -29.537646829731266 0 0 0
119 0 8 -1.05 23.628148093164118 7.7437181006805975 -27.401649563633725 0 0 0
103 0 7 1.575 17.265258313607667 7.634727153246401 -27.65576418035964 0 0 0
107 0 8 -1.05 19.24339761637532 7.693557137434378 -27.4481213449586 0 0 0
101 0 8 -1.05 17.032124205950442 7.719989710426591 -29.546886966593103 0 0 0
114 0 8 -1.05 21.612896048957964 7.477870730122653 -29.506754035087503 0 0 0
111 0 8 -1.05 21.40089909863983 5.4547797154731885 -27.398710161749058 0 0 0
54 0 8 -1.05 21.45368894050771 1.249707200308681 -27.262324397389825 0 0 0
104 0 8 -1.05 17.17850283874467 5.630457687886248 -27.328397226669072 0 0 0
49 0 8 -1.05 19.42460778250761 3.474613854181568 -27.381601819658957 0 0 0
41 0 8 -1.05 17.133271667152982 1.1723081220019367 -27.38126780432132 0 0 0
108 0 6 1.05 19.316580349543667 5.563976357504788 -27.533578342944278 0 0 0
53 0 6 1.05 21.516422176745788 3.3347136819025764 -27.55972164060552 0 0 0
50 0 7 1.575 20.402040674156034 0.1891863902419246 -28.580033646620688 0 0 0
51 0 8 -1.05 21.30938909984734 3.5417784288104697 -29.527055246053866 0 0 0
44 0 8 -1.05 17.369007735926452 3.247837732830985 -29.384013412909297 0 0 0
110 0 8 -1.05 19.497233784650074 5.352732745132867 -29.50981133800268 0 0 0
46 0 8 -1.05 19.196953957767203 1.4092454269784556 -29.392269331541986 0 0 0
47 0 7 1.575 19.347477767827133 3.389911200210364 -29.4519834880502 0 0 0
113 0 7 1.575 21.460358034810273 5.498035600588752 -29.471765998080908 0 0 0
43 0 7 1.575 17.215722425581433 1.2728669369953707 -29.45242743203268 0 0 0
402 0 7 1.575 24.637020668934362 0.19718156058113812 -24.29229429600071 0 0 0
443 0 6 1.05 23.530647502989428 5.504982627141592 -23.175556820046573 0 0 0
59 0 7 1.575 23.57997684749622 3.3917543654273796 -25.30724949424018 0 0 0
401 0 8 -1.05 23.62477893405768 3.4577104252255744 -23.088727120863318 0 0 0
118 0 8 -1.05 23.642935934955407 5.438073333896079 -25.188729883867452 0 0 0
56 0 8 -1.05 23.43961049497235 1.399677673784361 -25.118962361784895 0 0 0
442 0 8 -1.05 23.46033749506134 7.661589075622703 -22.969957376950312 0 0 0
435 0 8 -1.05 19.473229629825735 7.770787986656128 -22.930194104902263 0 0 0
112 0 8 -1.05 21.453557778874284 7.6233650289506905 -25.14296997915053 0 0 0
438 0 7 1.575 21.44432912293227 7.614700383999276 -23.218273451967434 0 0 0
109 0 6 1.05 19.356515715728253 7.6407473415376215 -25.464445086163877 0 0 0
105 0 8 -1.05 17.294324087233576 7.463244554534221 -25.174152407638786 0 0 0
391 0 8 -1.05 17.21988214808951 1.2691060039307456 -23.03947651115116 0 0 0
42 0 8 -1.05 17.144389186667038 3.4646143207399835 -25.309012023605746 0 0 0
431 0 8 -1.05 17.13808051806601 5.4079179465967675 -23.14218793326661 0 0 0
48 0 8 -1.05 19.401696024536754 1.1876226007063067 -25.235932707916525 0 0 0
397 0 8 -1.05 21.36006829762271 1.1784863940095913 -23.119656505040496 0 0 0
394 0 8 -1.05 19.330594014884596 3.3854306476288154 -23.025752100868846 0 0 0
439 0 8 -1.05 21.426950658390684 5.617233801622124 -23.07561900649548 0 0 0
102 0 7 1.575 17.21424295331157 5.496654211355472 -25.37722723758144 0 0 0
52 0 7 1.575 21.44528508204829 1.2513324320708068 -25.32739684568691 0 0 0
395 0 6 1.05 19.315127096662504 1.286309997776152 -23.242614120644546 0 0 0
390 0 6 1.05 17.236415320759026 3.362946050272864 -23.312720783484856 0 0 0
436 0 7 1.575 20.3942889065041 4.46057295601398 -24.29908308112675 0 0 0
55 0 8 -1.05 21.584179212347323 3.252996879112402 -25.130561369687427 0 0 0
106 0 8 -1.05 19.183163519757134 5.579919258515098 -25.20289875341293 0 0 0
45 0 7 1.575 18.29513110232924 2.3067525078831737 -26.425634016701512 0 0 0
115 0 7 1.575 22.545578087757914 6.558566528893694 -26.388638955497456 0 0 0
123 0 7 1.575 0.27792675072881656 9.759789509495459 -29.508704371684775 0 0 0
127 0 6 1.05 2.4106528683377118 11.846730763252097 -29.843626716562135 0 0 0
126 0 8 -1.05 2.216600929954028 9.841167784356749 -29.374897910991223 0 0 0
124 0 8 -1.05 0.36737839546120343 11.703391149742757 -29.443886211217812 0 0 0
131 0 8 -1.05 4.422858314388566 12.015669337693172 -29.342886269227094 0 0 0
130 0 7 1.575 3.4704069144358756 8.698715060462133 -28.56158680377461 0 0 0
133 0 7 1.575 4.4997844455475 11.84888323571471 -27.431460348508022 0 0 0
121 0 8 -1.05 0.11249681397906068 9.667103174757852 -27.357650466713032 0 0 0
129 0 8 -1.05 2.5586657186904236 12.03198105113703 -27.02579850539534 0 0 0
134 0 8 -1.05 4.568255564216409 9.81552584021934 -27.329871516851345 0 0 0
140 0 8 -1.05 6.825428428753434 9.655061242985209 -29.378055213981558 0 0 0
137 0 8 -1.05 6.565072810791852 11.787386112840046 -27.340089420037735 0 0 0
138 0 7 1.575 6.582752528782934 9.75276358196352 -27.477934096244518 0 0 0
125 0 7 1.575 1.3086600477123054 10.774807487555151 -26.392445202339047 0 0 0
135 0 8 -1.05 4.61765424667769 11.766432934963929 -25.174902251681083 0 0 0
446 0 6 1.05 0.24745462305552415 11.848628816216234 -23.233271408413543 0 0 0
451 0 7 1.575 2.352175035013831 9.733166010089894 -23.162546810255563 0 0 0
132 0 6 1.05 4.489544403824899 9.707932500452886 -25.32278317496133 0 0 0
450 0 8 -1.05 2.353000997112969 11.720890983829824 -23.049255122229912 0 0 0
453 0 8 -1.05 4.309540427156234 9.618207268238455 -22.897033274552108 0 0 0
128 0 8 -1.05 2.305501654991036 9.617258799983293 -25.101387656200927 0 0 0
122 0 8 -1.05 0.22351512742205704 11.952185624916718 -25.224699055373556 0 0 0
447 0 8 -1.05 0.2922899332999941 9.730929975582539 -22.958146728033636 0 0 0
136 0 8 -1.05 6.536927814646166 9.820439392557375 -25.178399015149523 0 0 0
458 0 7 1.575 7.687199041689601 8.626265915620625 -24.29586934866457 0 0 0
139 0 6 1.05 6.6490645745191195 11.876223264639533 -25.328728526266147 0 0 0
457 0 8 -1.05 6.789387132264312 11.938487191774353 -22.978344496840773 0 0 0
193 0 7 1.575 4.549764092122339 13.962043206098288 -29.507803766137126 0 0 0
190 0 8 -1.05 2.6309286518569306 13.874665430383534 -29.678568552791685 0 0 0
188 0 6 1.05 2.310184606413568 13.983049247559507 -27.744106393647005 0 0 0
184 0 8 -1.05 0.2141831678622278 14.054935131956896 -27.35089607568912 0 0 0
191 0 8 -1.05 4.464780306976456 13.892963550023516 -27.3778774421204 0 0 0
194 0 8 -1.05 4.685460840117918 15.949214336489144 -29.434153769767292 0 0 0
181 0 8 -1.05 0.16807795159671338 16.295445639549396 -29.459729836371253 0 0 0
187 0 8 -1.05 2.271666902480278 16.069468927935702 -27.401449472269167 0 0 0
183 0 7 1.575 0.2568733270763073 16.07562849474263 -27.56183486056088 0 0 0
196 0 8 -1.05 6.522772567775144 14.121710315556738 -29.41874320397556 0 0 0
200 0 7 1.575 7.6942522781385065 12.895612483760004 -28.571382410966827 0 0 0
197 0 7 1.575 6.650629862381031 16.090300579881152 -29.51747719881198 0 0 0
199 0 8 -1.05 6.709617767709489 16.22150944452053 -27.41264091043231 0 0 0
195 0 7 1.575 5.58413522061197 15.068593017936575 -26.4058889236488 0 0 0
186 0 8 -1.05 2.114606386854914 14.117701396425327 -24.843759031556427 0 0 0
492 0 7 1.575 3.3982361619999217 12.873678816455051 -24.277602116942095 0 0 0
182 0 7 1.575 0.24086904794405609 13.947354823601525 -25.421616099266036 0 0 0
495 0 8 -1.05 4.5012991782860015 14.038544389219329 -23.05883249973051 0 0 0
487 0 8 -1.05 0.027353882086736805 13.87250081828356 -22.903622958015358 0 0 0
185 0 8 -1.05 0.2834882014991415 15.949272343197855 -25.28012348427436 0 0 0
189 0 6 1.05 2.3641084775970564 16.10170072686071 -25.401495836647783 0 0 0
494 0 7 1.575 4.503438172455711 16.06623862974379 -23.25068128728105 0 0 0
192 0 8 -1.05 4.489857165742695 16.18158194162406 -25.190203471093454 0 0 0
491 0 8 -1.05 2.5600417056444273 16.218327161086346 -22.919168063013004 0 0 0
499 0 6 1.05 6.620950413620294 13.987299892465789 -23.25766222099421 0 0 0
198 0 8 -1.05 6.745007271880791 13.997661346210364 -25.25358484430698 0 0 0
498 0 8 -1.05 6.520638576692565 16.09480583888509 -23.13464645710223 0 0 0
143 0 7 1.575 8.781471269221964 9.773668351544208 -29.494731730626896 0 0 0
147 0 6 1.05 10.895926558648501 11.87605145915846 -29.88412913899905 0 0 0
146 0 8 -1.05 10.724708339240873 9.880580163236226 -29.336426090970107 0 0 0
144 0 8 -1.05 8.862477682251807 11.718642551737103 -29.45608255074542 0 0 0
150 0 7 1.575 11.933428017559013 8.656569295545166 -28.5867632290252 0 0 0
141 0 8 -1.05 8.641005588287394 9.654182160219191 -27.28481038033114 0 0 0
149 0 8 -1.05 11.063601425018135 12.065557274540751 -27.015371277084814 0 0 0
145 0 7 1.575 9.839055761789194 10.797310711867476 -26.360690144631533 0 0 0
460 0 7 1.575 8.745206123874492 11.835584289739014 -23.191805129216092 0 0 0
465 0 7 1.575 10.84874189055568 9.715016529792296 -23.19410322578374 0 0 0
464 0 8 -1.05 10.77318547763231 11.758215229513757 -23.123789405565805 0 0 0
148 0 8 -1.05 10.991926913920102 9.717524230350799 -25.144026455123463 0 0 0
142 0 8 -1.05 8.761968122064713 11.946038077948845 -25.138420532046553 0 0 0
461 0 8 -1.05 8.814388960715972 9.788214138208968 -23.135943636062194 0 0 0
210 0 8 -1.05 11.06796589652454 13.894940222872881 -29.442832500717344 0 0 0
208 0 7 1.575 10.884146209311584 13.981636693769824 -27.545472542262175 0 0 0
204 0 8 -1.05 8.85963260149735 13.939732364252432 -27.30773693207425 0 0 0
201 0 8 -1.05 8.593935194480599 16.281616929451975 -29.56183538942215 0 0 0
203 0 6 1.05 8.846290972896869 16.059584043898823 -27.593619020137822 0 0 0
207 0 8 -1.05 10.915584159367999 15.998379612531755 -27.377889350441382 0 0 0
206 0 8 -1.05 10.724313192615917 14.11140588298744 -25.148110295688134 0 0 0
506 0 7 1.575 11.89321485694751 12.883329842233623 -24.33220664058459 0 0 0
202 0 7 1.575 8.746460677050921 13.993909069605564 -25.364383283112378 0 0 0
501 0 8 -1.05 8.69300984654684 13.828485742637268 -23.08269153176073 0 0 0
505 0 8 -1.05 10.928392390857287 16.281887316006955 -22.923103773514054 0 0 0
209 0 6 1.05 10.88529820470591 16.139053055186 -25.383629276390266 0 0 0
205 0 8 -1.05 8.823418550923327 15.968753008558735 -25.15462397824409 0 0 0
158 0 7 1.575 15.11428950539843 9.786934444356737 -27.67949740415285 0 0 0
157 0 8 -1.05 15.107705222391107 11.754231151618624 -27.41793950139469 0 0 0
160 0 8 -1.05 15.207866525130152 9.547920647721291 -29.56603385717573 0 0 0
151 0 8 -1.05 12.925034707600192 12.088641659091815 -29.658791345000573 0 0 0
153 0 6 1.05 13.008402096141536 11.80459306566916 -27.712097824851963 0 0 0
154 0 8 -1.05 13.108286074073021 9.716005602264305 -27.32745868680733 0 0 0
349 0 7 1.575 19.346258100776254 24.583607849674483 -25.32949471786517 0 0 0
159 0 6 1.05 15.147236695938346 11.845868208383395 -25.427804914471917 0 0 0
472 0 7 1.575 16.200670974423108 8.666576195361998 -24.227953102929927 0 0 0
156 0 8 -1.05 14.983222505265958 9.783461126303829 -25.115128727111145 0 0 0
155 0 8 -1.05 13.158394106387444 11.643747725595734 -24.943116081834145 0 0 0
152 0 7 1.575 13.0135143054791 9.718702479250592 -25.388846211679407 0 0 0
467 0 8 -1.05 12.815273084761767 9.602227971324073 -22.972297957301343 0 0 0
219 0 8 -1.05 15.171879639797895 16.21124586330709 -27.399710521212548 0 0 0
217 0 7 1.575 15.136855180675239 16.133335219865952 -29.487828937226336 0 0 0
220 0 7 1.575 16.160669052113626 12.910647564883398 -28.640106235794864 0 0 0
216 0 8 -1.05 14.996779219963154 14.16455225721968 -29.45101032571443 0 0 0
213 0 7 1.575 13.0233743338216 14.017906865299992 -29.559314321871916 0 0 0
211 0 8 -1.05 12.923025779448084 13.94549639012849 -27.418904908476215 0 0 0
214 0 8 -1.05 13.162058533492745 15.993956474658356 -29.492216024750363 0 0 0
512 0 8 -1.05 15.104224214817105 16.010595582940777 -23.011622900570817 0 0 0
218 0 8 -1.05 15.207266786051544 13.99736967778736 -25.155410762331652 0 0 0
513 0 7 1.575 15.073709286764636 13.968797000272328 -23.214595530731362 0 0 0
215 0 7 1.575 14.068376135807043 15.050661684487624 -26.394008161185695 0 0 0
509 0 8 -1.05 13.065496995525589 13.973194999718727 -23.140632665312555 0 0 0
212 0 8 -1.05 13.009310999234224 16.219973959330943 -25.22881051097336 0 0 0
508 0 6 1.05 12.95208248276009 16.066700495859095 -23.241018398953464 0 0 0
180 0 8 -1.05 23.720431215460962 9.600950968417282 -29.405367452699895 0 0 0
178 0 7 1.575 23.547898654724726 9.76208182111627 -27.48106877842492 0 0 0
177 0 8 -1.05 23.510642037938794 11.795488557976887 -27.389417045635277 0 0 0
174 0 8 -1.05 21.516504633944578 9.795224875905998 -27.438303263933033 0 0 0
169 0 8 -1.05 19.46776975606904 11.900692662301635 -27.427538981370308 0 0 0
161 0 8 -1.05 17.050861817757482 9.583194128493544 -27.19715502180144 0 0 0
173 0 7 1.575 21.479224343639842 11.837640011118541 -27.49822475729715 0 0 0
170 0 7 1.575 20.395791034932383 8.695572579472298 -28.71116617338582 0 0 0
171 0 8 -1.05 21.336510611201234 11.993349055373988 -29.423822308177694 0 0 0
164 0 8 -1.05 17.396728521093312 11.745233153653977 -29.454032922014893 0 0 0
166 0 8 -1.05 19.27781445171959 9.894423295326602 -29.63783704400182 0 0 0
167 0 7 1.575 19.3431764648838 11.834113927886346 -29.575258443566725 0 0 0
163 0 6 1.05 17.23657653490063 9.742396686271062 -29.971221653834444 0 0 0
486 0 7 1.575 24.609204519562244 8.694098131486152 -24.241048821204792 0 0 0
179 0 6 1.05 23.57920687540189 11.847385080656103 -25.366860504280567 0 0 0
485 0 8 -1.05 23.602518208088295 11.977606975767163 -23.017140947802893 0 0 0
176 0 8 -1.05 23.4878141061598 9.7849168544206 -25.300905921622807 0 0 0
475 0 8 -1.05 17.320646611010385 9.735672565691978 -22.967591039971083 0 0 0
162 0 8 -1.05 17.248649999174667 11.972876687435521 -25.21892659678366 0 0 0
168 0 8 -1.05 19.32890989388392 9.736336955744763 -25.132613132262765 0 0 0
481 0 8 -1.05 21.322471167093823 9.609333239939605 -22.958998102618203 0 0 0
478 0 8 -1.05 19.370085006077908 11.755676217241165 -23.05925951977578 0 0 0
172 0 6 1.05 21.413001703310623 9.710019786420832 -25.43813779960285 0 0 0
479 0 7 1.575 19.331564625263255 9.756371718710254 -23.20704948327579 0 0 0
474 0 6 1.05 17.26622139959416 11.866831936821871 -23.232200948102157 0 0 0
175 0 8 -1.05 21.513395659341363 11.783388730811717 -25.3455693049198 0 0 0
165 0 7 1.575 18.273515106119884 10.807303882605813 -26.43306745983626 0 0 0
223 0 6 1.05 17.26031557247634 16.084234004077224 -27.556995845258953 0 0 0
227 0 8 -1.05 19.359426208967747 16.114014496284625 -27.317924898820404 0 0 0
236 0 8 -1.05 23.42387524825427 14.066278688500555 -29.52665565392649 0 0 0
240 0 7 1.575 24.625142246035118 12.922774864937685 -28.6400033920582 0 0 0
221 0 8 -1.05 17.09383081763453 16.286291661333784 -29.52522786690937 0 0 0
234 0 8 -1.05 21.553859267604317 15.929554125146135 -29.487566676449067 0 0 0
237 0 6 1.05 23.58137473955674 16.10628905625067 -29.872157471128443 0 0 0
239 0 8 -1.05 23.716678579619327 16.263824592988158 -27.21303948541518 0 0 0
231 0 8 -1.05 21.395886337121436 13.850170972446358 -27.403343940856317 0 0 0
224 0 8 -1.05 17.21565321116903 13.973484589076692 -27.310313159121904 0 0 0
228 0 6 1.05 19.261185107891908 14.061049969500163 -27.721815834479898 0 0 0
230 0 8 -1.05 19.534160854108876 13.78078095346985 -29.656942755302083 0 0 0
233 0 7 1.575 21.484223378861163 13.983939357493336 -29.57571288756166 0 0 0
519 0 8 -1.05 19.39173293166093 16.244291781220152 -23.013834375580668 0 0 0
232 0 8 -1.05 21.34830168382105 16.07029649758436 -25.204925378252852 0 0 0
522 0 6 1.05 21.4658418430604 16.10618365160912 -23.21346893204615 0 0 0
229 0 7 1.575 19.363385068685876 16.10464447061653 -25.39534080915347 0 0 0
225 0 8 -1.05 17.36494998589944 15.979078637690224 -25.17773872780925 0 0 0
527 0 7 1.575 23.529373912939718 13.96959577354082 -23.214221054085776 0 0 0
238 0 8 -1.05 23.645058964291575 13.975905954652683 -25.157170190093733 0 0 0
515 0 8 -1.05 17.086579516919905 13.950697951033654 -23.093953654318888 0 0 0
526 0 8 -1.05 23.54451067807868 15.983505824557193 -23.084667282208528 0 0 0
523 0 8 -1.05 21.515473487750178 13.93817213376677 -23.00439596102411 0 0 0
222 0 7 1.575 17.230301703961047 13.97078494159112 -25.381208103458615 0 0 0
520 0 7 1.575 20.403901680388532 12.894400391741666 -24.29265785621558 0 0 0
226 0 8 -1.05 19.207024530962897 14.12869957053763 -25.07884279709103 0 0 0
235 0 7 1.575 22.501948777688973 15.045475948841862 -26.4264090323059 0 0 0
301 0 8 -1.05 0.12137996994118898 24.714285294047386 -29.475973912414602 0 0 0
314 0 8 -1.05 4.670901102238965 24.44667360712631 -29.58336107975804 0 0 0
303 0 6 1.05 0.3225558243614087 24.544866532136705 -27.497762680927806 0 0 0
307 0 8 -1.05 2.4481328305979764 24.452860929053195 -27.42660906045183 0 0 0
243 0 7 1.575 0.3072099535896954 18.252042644156994 -29.577865948763936 0 0 0
313 0 7 1.575 4.530978226600163 22.47003195742228 -29.648488146229145 0 0 0
247 0 6 1.05 2.400094483606961 20.340227393825785 -30.015236843159634 0 0 0
246 0 8 -1.05 2.252886128083926 18.336122238682506 -29.47589386312877 0 0 0
310 0 8 -1.05 2.573230354658981 22.351069960144475 -29.558684476393573 0 0 0
244 0 8 -1.05 0.3992877683285671 20.198231363015786 -29.427714649152524 0 0 0
251 0 8 -1.05 4.423944939992625 20.54550170990062 -29.7672551017751 0 0 0
250 0 7 1.575 3.4241910128790014 17.121542136657386 -28.63870824368654 0 0 0
253 0 6 1.05 4.518530025986291 20.268597875917227 -27.822391653464198 0 0 0
308 0 7 1.575 2.3848675834294464 22.45709775827883 -27.66969081064511 0 0 0
241 0 8 -1.05 0.15691929790506912 18.120981929217447 -27.376434597761147 0 0 0
249 0 8 -1.05 2.590388136664058 20.575272346101606 -27.052339423428478 0 0 0
304 0 8 -1.05 0.401143279287006 22.41593045798047 -27.279241188240384 0 0 0
254 0 8 -1.05 4.566205856898799 18.19462463821741 -27.361912247820356 0 0 0
311 0 8 -1.05 4.435958394788854 22.437644429948612 -27.532799569976163 0 0 0
317 0 7 1.575 6.6435457034111955 24.560623686942147 -29.643673355465488 0 0 0
319 0 8 -1.05 6.709921852832542 24.681127077445655 -27.443796419919227 0 0 0
316 0 8 -1.05 6.507008858090434 22.61257535688705 -29.55527285658472 0 0 0
260 0 8 -1.05 6.776130995395426 18.066570525764153 -29.42973727770217 0 0 0
258 0 7 1.575 6.607021068984186 18.258990475945144 -27.51515268454158 0 0 0
257 0 8 -1.05 6.611989676331095 20.269471454273994 -27.448123850622636 0 0 0
320 0 7 1.575 7.685628416578154 21.408411880107064 -28.683563827119475 0 0 0
309 0 6 1.05 2.3906532770891546 24.594247281523707 -25.443884614891136 0 0 0
578 0 6 1.05 4.521639250720824 24.56487936707891 -23.242756049387946 0 0 0
312 0 8 -1.05 4.484705285495529 24.667996251362702 -25.236823575338754 0 0 0
606 0 6 1.05 21.469135248442477 24.562039316044125 -23.226379996065457 0 0 0
305 0 8 -1.05 0.33223612442631806 24.432335356646764 -25.184413480060545 0 0 0
315 0 7 1.575 5.545485269647078 23.538391620534725 -26.452118869879484 0 0 0
245 0 7 1.575 1.327513055821107 19.30673633807458 -26.45272963999791 0 0 0
306 0 8 -1.05 2.2392500128648956 22.59710951234032 -25.012847393323224 0 0 0
255 0 8 -1.05 4.673788799199954 20.112280696659703 -24.87923032417445 0 0 0
576 0 7 1.575 3.4433155785399983 21.376581822000322 -24.248758167960922 0 0 0
530 0 6 1.05 0.2778865398406902 20.30397875256914 -23.254421481714697 0 0 0
535 0 6 1.05 2.364846357924711 18.236811585154395 -23.27957378963499 0 0 0
252 0 7 1.575 4.466714953389409 18.22869929954017 -25.41851733763107 0 0 0
302 0 7 1.575 0.2765164574869662 22.450467332104765 -25.323908785057007 0 0 0
579 0 8 -1.05 4.604292753391995 22.45405304382521 -22.984025762036868 0 0 0
534 0 8 -1.05 2.362621671833442 20.317810865920446 -22.97512635581185 0 0 0
537 0 8 -1.05 4.45750413521351 18.03177152659592 -23.055921774084247 0 0 0
248 0 8 -1.05 2.473496298766655 18.210345752281302 -25.270735689150445 0 0 0
571 0 8 -1.05 0.14238342388974684 22.36809222075806 -23.09990908974787 0 0 0
242 0 8 -1.05 0.18740169969157155 20.412059108081458 -25.250341999330733 0 0 0
531 0 8 -1.05 0.26817122677954097 18.187368635234044 -23.040602102537402 0 0 0
582 0 8 -1.05 6.659889111247567 24.47354313678186 -23.093704635555145 0 0 0
318 0 8 -1.05 6.587407190130291 22.449796418642375 -25.1879618202222 0 0 0
541 0 8 -1.05 6.791337306585889 20.499951533411704 -22.947887845871886 0 0 0
259 0 6 1.05 6.627808823921559 20.371023082089593 -25.460921828470443 0 0 0
583 0 7 1.575 6.620650522752222 22.476335933543663 -23.262990944114442 0 0 0
542 0 7 1.575 7.6540940773012816 17.18495117891119 -24.32333579762916 0 0 0
256 0 8 -1.05 6.48879458750591 18.243102509091546 -25.37970128649985 0 0 0
321 0 8 -1.05 8.578259464669685 24.682160327025485 -29.444233951167575 0 0 0
323 0 7 1.575 8.773720084781772 24.582397678245737 -27.530419390062022 0 0 0
327 0 8 -1.05 10.794784883500393 24.52638756067556 -27.423466562401273 0 0 0