LAMMPS (17 Feb 2022)
variable layer index 21
variable type string fa_int_half_qeq
variable rand equal round(random(0,1e7,452345))
variable temp index 50000 45000 40500 36450 32805 29524 26571 23913 21521 19368 17431 15687 14118 12706 11435 10291 9261 8334 7500 6750 6075 5467 4920 4428 3985 3586 3227 2904 2613 2351 2115 1903 1712 1540 1386 1247 1122 1009 908 817 735 661 594 534 480 432 388 349 314 282 253 227 204 183 164 147 132 118 106 95 85 76 68 61 54 48 43 38 34 30 27 24 21 18 16 14 12 10 9 8 7 6 5 4 3 2 1
variable nsteps equal 324  # (nfe*nfe)/4

include settings.lmp
units              real
atom_style         full
timestep	   0.5
boundary	   p p f

pair_style         lj/cut/coul/long 12.0
bond_style         harmonic
angle_style        harmonic
dihedral_style     fourier
improper_style     cvff
kspace_style       pppm 1.0e-6
kspace_modify      slab 3.0

pair_modify        mix arithmetic
special_bonds      amber
neighbor           2.0 bin
neigh_modify       every 1 delay 0 check yes

read_data 001-dbt_3x3_${layer}L_${type}.data
read_data 001-dbt_3x3_21L_${type}.data
read_data 001-dbt_3x3_21L_fa_int_half_qeq.data
Reading data file ...
  orthogonal box = (0 0 -41.458422) to (25.44 25.44 32.908)
  1 by 1 by 4 MPI processor grid
  reading atoms ...
  2925 atoms
  reading velocities ...
  2925 velocities
  scanning bonds ...
  3 = max bonds/atom
  scanning angles ...
  3 = max angles/atom
  scanning impropers ...
  1 = max impropers/atom
  reading bonds ...
  36 bonds
  reading angles ...
  54 angles
  reading impropers ...
  9 impropers
Finding 1-2 1-3 1-4 neighbors ...
  special bond factors lj:    0        0        0.5     
  special bond factors coul:  0        0        0.8333333333333334
     3 = max # of 1-2 neighbors
     2 = max # of 1-3 neighbors
     2 = max # of 1-4 neighbors
     3 = max # of special neighbors
  special bonds CPU = 0.000 seconds
  read_data CPU = 0.010 seconds

include ff_formic_acid_fe304.param
#####################-----formic_acid-----######################################

mass  1   12.011   # Sp2 C carbonyl group
mass  2    1.008   # H bonded to non-sp3 carbon with 2 electrwd. group
mass  3   15.9994  # Oxygen with one connected atom
mass  4   15.9994  # Oxygen in hydroxyl group
mass  5    1.008   # Hydroxyl group

pair_coeff  1  1   0.0988  3.31521230994  # c
pair_coeff  2  2   0.0161  2.44729877873  # h5
pair_coeff  3  3   0.1463  3.04812087425  # o
pair_coeff  4  4   0.0930  3.24287133403  # oh
pair_coeff  5  5   0.0047  0.537924646013 # ho

bond_coeff  1  361.80  1.105  # c-h5
bond_coeff  2  652.57  1.218  # c=o
bond_coeff  3  383.13  1.351  # c-oh
bond_coeff  4  563.51  0.973  # o-h

angle_coeff  1   51.617  106.550  # c-oh-ho
angle_coeff  2   65.930  123.650  # h5-c=o
angle_coeff  3   65.262  109.490  # h5-c-oh
angle_coeff  4  115.745  122.100  # o=c-oh

dihedral_coeff  1  1  2.3  2  180.0               # h5-c-oh-ho
dihedral_coeff  2  2  2.3  2  180.0  1.9  1  0.0  # o=c-oh-ho

                              #  h5
                              #  |
improper_coeff  1  10.5 -1 2  #  c
                              # / \
                              # o  oh

#####################-----formate-----###########################################

angle_coeff  5   118.817 130.250  # o-c-o

                              #  h5
                              #  |
improper_coeff  2  10.5 -1 2  #  c
                              # / \
                              # o  o

#####################-----magnetite-----#########################################

mass  6   55.845   # Iron(II)
mass  7   55.845   # Iron(III)
mass  8   15.9994  # Bridging oxygen
mass  9   15.9994  # Hydroxyl oxygen
mass  10   1.008   # Hydroxyl hydrogen

pair_coeff  6  6   9.0298e-07  4.90620  # fe2
pair_coeff  7  7   9.0298e-07  4.90620  # fe3
pair_coeff  8  8   0.1554      3.16554  # ob
pair_coeff  9  9   0.1554      3.16554  # oh
pair_coeff  10 10  0.0         0.0      # ho

bond_coeff  5  554.1349  1.0   # oh-ho
bond_coeff  6    0.0     2.08  # fe-oh (dummy bond)

angle_coeff  6   30.0  109.470  # fe-oh-ho

##################################################################################

group Fe type 6 7
1224 atoms in group Fe

region bottomFe block INF INF INF INF INF -28.5
group bottomFe region bottomFe
108 atoms in group bottomFe
group bFe intersect bottomFe Fe
36 atoms in group bFe


label minimize_temp

  variable ftemp equal v_temp

  # Electrostatic relaxation
  fix swp bFe atom/swap 1 1 ${rand} ${temp} ke no types 6 7
  fix swp bFe atom/swap 1 1 855824 ${temp} ke no types 6 7
  fix swp bFe atom/swap 1 1 855824 50000 ke no types 6 7
  thermo 100
  thermo_style custom step v_ftemp pe f_swp[1] f_swp[2]
  run ${nsteps}
  run 324
WARNING: No fixes with time integration, atoms won't move (../verlet.cpp:60)
PPPM initialization ...
  using 12-bit tables for long-range coulomb (../kspace.cpp:340)
  G vector (1/distance) = 0.29588697
  grid = 45 45 200
  stencil order = 5
  estimated absolute RMS force accuracy = 0.00034195275
  estimated relative force accuracy = 1.0297805e-06
  using double precision KISS FFT
  3d grid and FFT values/proc = 446148 301725
  generated 45 of 45 mixed pair_coeff terms from arithmetic mixing rule
Neighbor list info ...
  update every 1 steps, delay 0 steps, check yes
  max neighbors/atom: 2000, page size: 100000
  master list distance cutoff = 14
  ghost atom cutoff = 14
  binsize = 7, bins = 4 4 11
  1 neighbor lists, perpetual/occasional/extra = 1 0 0
  (1) pair lj/cut/coul/long, perpetual
      attributes: half, newton on
      pair build: half/bin/newton
      stencil: half/bin/3d
      bin: standard
Per MPI rank memory allocation (min/avg/max) = 21.22 | 29.56 | 51.95 Mbytes
Step v_ftemp PotEng f_swp[1] f_swp[2] 
       0        50000   -539537.72            0            0 
     100        50000   -539510.89          100           86 
     200        50000   -539512.03          200          174 
     300        50000   -539488.25          300          264 
     324        50000   -539557.39          324          287 
Loop time of 74.0715 on 4 procs for 324 steps with 2925 atoms

Performance: 0.189 ns/day, 127.009 hours/ns, 4.374 timesteps/s
90.3% CPU use with 4 MPI tasks x no OpenMP threads

MPI task timing breakdown:
Section |  min time  |  avg time  |  max time  |%varavg| %total
---------------------------------------------------------------
Pair    | 0.30464    | 1.6534     | 2.6628     |  76.5 |  2.23
Bond    | 0.0005827  | 0.0011503  | 0.0026165  |   2.5 |  0.00
Kspace  | 18.462     | 19.472     | 20.824     |  22.3 | 26.29
Neigh   | 4.1216     | 4.13       | 4.1433     |   0.4 |  5.58
Comm    | 0.20375    | 0.21092    | 0.22398    |   1.7 |  0.28
Output  | 8.2568e-05 | 0.0002016  | 0.00045852 |   0.0 |  0.00
Modify  | 48.588     | 48.597     | 48.61      |   0.1 | 65.61
Other   |            | 0.007353   |            |       |  0.01

Nlocal:         731.25 ave        1134 max         279 min
Histogram: 1 0 1 0 0 0 0 0 1 1
Nghost:        6891.25 ave        9527 max        4377 min
Histogram: 1 1 0 0 0 0 0 0 1 1
Neighs:         350484 ave      565956 max       60035 min
Histogram: 1 0 0 1 0 0 0 0 0 2

Total # of neighbors = 1401934
Ave neighs/atom = 479.29368
Ave special neighs/atom = 0.043076923
Neighbor list builds = 648
Dangerous builds = 0

  unfix swp
  thermo_style custom step temp pe

next temp
jump SELF minimize_temp

  variable ftemp equal v_temp

  # Electrostatic relaxation
  fix swp bFe atom/swap 1 1 ${rand} ${temp} ke no types 6 7
  fix swp bFe atom/swap 1 1 710414 ${temp} ke no types 6 7
  fix swp bFe atom/swap 1 1 710414 45000 ke no types 6 7
  thermo 100
  thermo_style custom step v_ftemp pe f_swp[1] f_swp[2]
  run ${nsteps}
  run 324
WARNING: No fixes with time integration, atoms won't move (../verlet.cpp:60)
PPPM initialization ...
  using 12-bit tables for long-range coulomb (../kspace.cpp:340)
  G vector (1/distance) = 0.29588697
  grid = 45 45 200
  stencil order = 5
  estimated absolute RMS force accuracy = 0.00034195275
  estimated relative force accuracy = 1.0297805e-06
  using double precision KISS FFT
  3d grid and FFT values/proc = 446148 301725
  generated 45 of 45 mixed pair_coeff terms from arithmetic mixing rule
Per MPI rank memory allocation (min/avg/max) = 21.22 | 29.56 | 51.95 Mbytes
Step v_ftemp PotEng f_swp[1] f_swp[2] 
     324        45000   -539557.39            0            0 
     400        45000   -539515.08           76           66 
     500        45000   -539426.59          176          158 
     600        45000   -539575.96          276          249 
     648        45000   -539566.92          324          290 
Loop time of 69.5834 on 4 procs for 324 steps with 2925 atoms

Performance: 0.201 ns/day, 119.313 hours/ns, 4.656 timesteps/s
93.2% CPU use with 4 MPI tasks x no OpenMP threads

MPI task timing breakdown:
Section |  min time  |  avg time  |  max time  |%varavg| %total
---------------------------------------------------------------
Pair    | 0.28082    | 1.5689     | 2.5061     |  74.3 |  2.25
Bond    | 0.0005119  | 0.00095363 | 0.0019337  |   0.0 |  0.00
Kspace  | 17.436     | 18.375     | 19.663     |  21.7 | 26.41
Neigh   | 3.6791     | 3.6858     | 3.6963     |   0.3 |  5.30
Comm    | 0.10758    | 0.12154    | 0.1307     |   2.7 |  0.17
Output  | 7.4287e-05 | 0.00018854 | 0.0004352  |   0.0 |  0.00
Modify  | 45.821     | 45.825     | 45.829     |   0.1 | 65.86
Other   |            | 0.006056   |            |       |  0.01

Nlocal:         731.25 ave        1134 max         279 min
Histogram: 1 0 1 0 0 0 0 0 1 1
Nghost:        6891.25 ave        9527 max        4377 min
Histogram: 1 1 0 0 0 0 0 0 1 1
Neighs:         350484 ave      565956 max       60035 min
Histogram: 1 0 0 1 0 0 0 0 0 2

Total # of neighbors = 1401934
Ave neighs/atom = 479.29368
Ave special neighs/atom = 0.043076923
Neighbor list builds = 648
Dangerous builds = 0

  unfix swp
  thermo_style custom step temp pe

next temp
jump SELF minimize_temp

  variable ftemp equal v_temp

  # Electrostatic relaxation
  fix swp bFe atom/swap 1 1 ${rand} ${temp} ke no types 6 7
  fix swp bFe atom/swap 1 1 755762 ${temp} ke no types 6 7
  fix swp bFe atom/swap 1 1 755762 40500 ke no types 6 7
  thermo 100
  thermo_style custom step v_ftemp pe f_swp[1] f_swp[2]
  run ${nsteps}
  run 324
WARNING: No fixes with time integration, atoms won't move (../verlet.cpp:60)
PPPM initialization ...
  using 12-bit tables for long-range coulomb (../kspace.cpp:340)
  G vector (1/distance) = 0.29588697
  grid = 45 45 200
  stencil order = 5
  estimated absolute RMS force accuracy = 0.00034195275
  estimated relative force accuracy = 1.0297805e-06
  using double precision KISS FFT
  3d grid and FFT values/proc = 446148 301725
  generated 45 of 45 mixed pair_coeff terms from arithmetic mixing rule
Per MPI rank memory allocation (min/avg/max) = 21.22 | 29.56 | 51.95 Mbytes
Step v_ftemp PotEng f_swp[1] f_swp[2] 
     648        40500   -539566.92            0            0 
     700        40500   -539606.19           52           43 
     800        40500   -539588.74          152          125 
     900        40500      -539537          252          216 
     972        40500   -539488.79          324          284 
Loop time of 69.535 on 4 procs for 324 steps with 2925 atoms

Performance: 0.201 ns/day, 119.230 hours/ns, 4.660 timesteps/s
93.6% CPU use with 4 MPI tasks x no OpenMP threads

MPI task timing breakdown:
Section |  min time  |  avg time  |  max time  |%varavg| %total
---------------------------------------------------------------
Pair    | 0.28275    | 1.549      | 2.4728     |  72.9 |  2.23
Bond    | 0.00043824 | 0.00086739 | 0.0020225  |   0.0 |  0.00
Kspace  | 17.329     | 18.255     | 19.521     |  21.3 | 26.25
Neigh   | 3.7496     | 3.7574     | 3.7699     |   0.4 |  5.40
Comm    | 0.12206    | 0.138      | 0.14878    |   2.8 |  0.20
Output  | 7.3386e-05 | 0.00019979 | 0.00049188 |   0.0 |  0.00
Modify  | 45.824     | 45.828     | 45.832     |   0.1 | 65.91
Other   |            | 0.007      |            |       |  0.01

Nlocal:         731.25 ave        1134 max         279 min
Histogram: 1 0 1 0 0 0 0 0 1 1
Nghost:        6891.25 ave        9527 max        4377 min
Histogram: 1 1 0 0 0 0 0 0 1 1
Neighs:         350484 ave      565956 max       60035 min
Histogram: 1 0 0 1 0 0 0 0 0 2

Total # of neighbors = 1401934
Ave neighs/atom = 479.29368
Ave special neighs/atom = 0.043076923
Neighbor list builds = 648
Dangerous builds = 0

  unfix swp
  thermo_style custom step temp pe

next temp
jump SELF minimize_temp

  variable ftemp equal v_temp

  # Electrostatic relaxation
  fix swp bFe atom/swap 1 1 ${rand} ${temp} ke no types 6 7
  fix swp bFe atom/swap 1 1 4574249 ${temp} ke no types 6 7
  fix swp bFe atom/swap 1 1 4574249 36450 ke no types 6 7
  thermo 100
  thermo_style custom step v_ftemp pe f_swp[1] f_swp[2]
  run ${nsteps}
  run 324
WARNING: No fixes with time integration, atoms won't move (../verlet.cpp:60)
PPPM initialization ...
  using 12-bit tables for long-range coulomb (../kspace.cpp:340)
  G vector (1/distance) = 0.29588697
  grid = 45 45 200
  stencil order = 5
  estimated absolute RMS force accuracy = 0.00034195275
  estimated relative force accuracy = 1.0297805e-06
  using double precision KISS FFT
  3d grid and FFT values/proc = 446148 301725
  generated 45 of 45 mixed pair_coeff terms from arithmetic mixing rule
Per MPI rank memory allocation (min/avg/max) = 21.22 | 29.56 | 51.95 Mbytes
Step v_ftemp PotEng f_swp[1] f_swp[2] 
     972        36450   -539488.79            0            0 
    1000        36450   -539497.11           28           20 
    1100        36450   -539555.14          128          104 
    1200        36450   -539557.74          228          193 
    1296        36450   -539569.44          324          269 
Loop time of 66.7796 on 4 procs for 324 steps with 2925 atoms

Performance: 0.210 ns/day, 114.505 hours/ns, 4.852 timesteps/s
94.1% CPU use with 4 MPI tasks x no OpenMP threads

MPI task timing breakdown:
Section |  min time  |  avg time  |  max time  |%varavg| %total
---------------------------------------------------------------
Pair    | 0.28925    | 1.567      | 2.4798     |  73.2 |  2.35
Bond    | 0.00034201 | 0.00093904 | 0.0023714  |   0.0 |  0.00
Kspace  | 16.33      | 17.245     | 18.522     |  22.1 | 25.82
Neigh   | 3.8534     | 3.862      | 3.8765     |   0.5 |  5.78
Comm    | 0.13773    | 0.15677    | 0.16894    |   3.1 |  0.23
Output  | 8.4044e-05 | 0.00023046 | 0.0005637  |   0.0 |  0.00
Modify  | 43.936     | 43.94      | 43.946     |   0.1 | 65.80
Other   |            | 0.007695   |            |       |  0.01

Nlocal:         731.25 ave        1134 max         279 min
Histogram: 1 0 1 0 0 0 0 0 1 1
Nghost:        6891.25 ave        9527 max        4377 min
Histogram: 1 1 0 0 0 0 0 0 1 1
Neighs:         350484 ave      565956 max       60035 min
Histogram: 1 0 0 1 0 0 0 0 0 2

Total # of neighbors = 1401934
Ave neighs/atom = 479.29368
Ave special neighs/atom = 0.043076923
Neighbor list builds = 648
Dangerous builds = 0

  unfix swp
  thermo_style custom step temp pe

next temp
jump SELF minimize_temp

  variable ftemp equal v_temp

  # Electrostatic relaxation
  fix swp bFe atom/swap 1 1 ${rand} ${temp} ke no types 6 7
  fix swp bFe atom/swap 1 1 5979850 ${temp} ke no types 6 7
  fix swp bFe atom/swap 1 1 5979850 32805 ke no types 6 7
  thermo 100
  thermo_style custom step v_ftemp pe f_swp[1] f_swp[2]
  run ${nsteps}
  run 324
WARNING: No fixes with time integration, atoms won't move (../verlet.cpp:60)
PPPM initialization ...
  using 12-bit tables for long-range coulomb (../kspace.cpp:340)
  G vector (1/distance) = 0.29588697
  grid = 45 45 200
  stencil order = 5
  estimated absolute RMS force accuracy = 0.00034195275
  estimated relative force accuracy = 1.0297805e-06
  using double precision KISS FFT
  3d grid and FFT values/proc = 446148 301725
  generated 45 of 45 mixed pair_coeff terms from arithmetic mixing rule
Per MPI rank memory allocation (min/avg/max) = 21.22 | 29.56 | 51.95 Mbytes
Step v_ftemp PotEng f_swp[1] f_swp[2] 
    1296        32805   -539569.44            0            0 
    1300        32805    -539490.9            4            2 
    1400        32805    -539548.5          104           81 
    1500        32805   -539558.17          204          161 
    1600        32805   -539565.38          304          244 
    1620        32805    -539449.3          324          261 
Loop time of 68.55 on 4 procs for 324 steps with 2925 atoms

Performance: 0.204 ns/day, 117.541 hours/ns, 4.726 timesteps/s
93.8% CPU use with 4 MPI tasks x no OpenMP threads

MPI task timing breakdown:
Section |  min time  |  avg time  |  max time  |%varavg| %total
---------------------------------------------------------------
Pair    | 0.2848     | 1.594      | 2.5585     |  74.9 |  2.33
Bond    | 0.00056866 | 0.0010717  | 0.0020553  |   1.8 |  0.00
Kspace  | 16.908     | 17.873     | 19.182     |  22.4 | 26.07
Neigh   | 3.7957     | 3.804      | 3.8171     |   0.4 |  5.55
Comm    | 0.12562    | 0.14096    | 0.15198    |   2.7 |  0.21
Output  | 0.00010229 | 0.00027313 | 0.00065249 |   0.0 |  0.00
Modify  | 45.127     | 45.131     | 45.135     |   0.0 | 65.84
Other   |            | 0.006018   |            |       |  0.01

Nlocal:         731.25 ave        1134 max         279 min
Histogram: 1 0 1 0 0 0 0 0 1 1
Nghost:        6891.25 ave        9527 max        4377 min
Histogram: 1 1 0 0 0 0 0 0 1 1
Neighs:         350484 ave      565956 max       60035 min
Histogram: 1 0 0 1 0 0 0 0 0 2

Total # of neighbors = 1401934
Ave neighs/atom = 479.29368
Ave special neighs/atom = 0.043076923
Neighbor list builds = 648
Dangerous builds = 0

  unfix swp
  thermo_style custom step temp pe

next temp
jump SELF minimize_temp

  variable ftemp equal v_temp

  # Electrostatic relaxation
  fix swp bFe atom/swap 1 1 ${rand} ${temp} ke no types 6 7
  fix swp bFe atom/swap 1 1 2707118 ${temp} ke no types 6 7
  fix swp bFe atom/swap 1 1 2707118 29524 ke no types 6 7
  thermo 100
  thermo_style custom step v_ftemp pe f_swp[1] f_swp[2]
  run ${nsteps}
  run 324
WARNING: No fixes with time integration, atoms won't move (../verlet.cpp:60)
PPPM initialization ...
  using 12-bit tables for long-range coulomb (../kspace.cpp:340)
  G vector (1/distance) = 0.29588697
  grid = 45 45 200
  stencil order = 5
  estimated absolute RMS force accuracy = 0.00034195275
  estimated relative force accuracy = 1.0297805e-06
  using double precision KISS FFT
  3d grid and FFT values/proc = 446148 301725
  generated 45 of 45 mixed pair_coeff terms from arithmetic mixing rule
Per MPI rank memory allocation (min/avg/max) = 21.22 | 29.56 | 51.95 Mbytes
Step v_ftemp PotEng f_swp[1] f_swp[2] 
    1620        29524    -539449.3            0            0 
    1700        29524   -539483.19           80           67 
    1800        29524   -539489.44          180          151 
    1900        29524   -539509.08          280          231 
    1944        29524   -539560.09          324          269 
Loop time of 68.3711 on 4 procs for 324 steps with 2925 atoms

Performance: 0.205 ns/day, 117.234 hours/ns, 4.739 timesteps/s
93.5% CPU use with 4 MPI tasks x no OpenMP threads

MPI task timing breakdown:
Section |  min time  |  avg time  |  max time  |%varavg| %total
---------------------------------------------------------------
Pair    | 0.28698    | 1.5874     | 2.5234     |  74.0 |  2.32
Bond    | 0.00054221 | 0.0010364  | 0.0021433  |   2.0 |  0.00
Kspace  | 17.274     | 18.211     | 19.511     |  21.9 | 26.64
Neigh   | 3.7843     | 3.7924     | 3.8061     |   0.4 |  5.55
Comm    | 0.12234    | 0.13824    | 0.14934    |   2.8 |  0.20
Output  | 7.3063e-05 | 0.00019502 | 0.00047322 |   0.0 |  0.00
Modify  | 44.632     | 44.635     | 44.639     |   0.0 | 65.28
Other   |            | 0.00574    |            |       |  0.01

Nlocal:         731.25 ave        1134 max         279 min
Histogram: 1 0 1 0 0 0 0 0 1 1
Nghost:        6891.25 ave        9527 max        4377 min
Histogram: 1 1 0 0 0 0 0 0 1 1
Neighs:         350484 ave      565956 max       60035 min
Histogram: 1 0 0 1 0 0 0 0 0 2

Total # of neighbors = 1401934
Ave neighs/atom = 479.29368
Ave special neighs/atom = 0.043076923
Neighbor list builds = 648
Dangerous builds = 0

  unfix swp
  thermo_style custom step temp pe

next temp
jump SELF minimize_temp

  variable ftemp equal v_temp

  # Electrostatic relaxation
  fix swp bFe atom/swap 1 1 ${rand} ${temp} ke no types 6 7
  fix swp bFe atom/swap 1 1 1165944 ${temp} ke no types 6 7
  fix swp bFe atom/swap 1 1 1165944 26571 ke no types 6 7
  thermo 100
  thermo_style custom step v_ftemp pe f_swp[1] f_swp[2]
  run ${nsteps}
  run 324
WARNING: No fixes with time integration, atoms won't move (../verlet.cpp:60)
PPPM initialization ...
  using 12-bit tables for long-range coulomb (../kspace.cpp:340)
  G vector (1/distance) = 0.29588697
  grid = 45 45 200
  stencil order = 5
  estimated absolute RMS force accuracy = 0.00034195275
  estimated relative force accuracy = 1.0297805e-06
  using double precision KISS FFT
  3d grid and FFT values/proc = 446148 301725
  generated 45 of 45 mixed pair_coeff terms from arithmetic mixing rule
Per MPI rank memory allocation (min/avg/max) = 21.22 | 29.56 | 51.95 Mbytes
Step v_ftemp PotEng f_swp[1] f_swp[2] 
    1944        26571   -539560.09            0            0 
    2000        26571   -539519.46           56           46 
    2100        26571   -539544.47          156          137 
    2200        26571   -539560.99          256          222 
    2268        26571    -539496.2          324          272 
Loop time of 66.8761 on 4 procs for 324 steps with 2925 atoms

Performance: 0.209 ns/day, 114.671 hours/ns, 4.845 timesteps/s
94.0% CPU use with 4 MPI tasks x no OpenMP threads

MPI task timing breakdown:
Section |  min time  |  avg time  |  max time  |%varavg| %total
---------------------------------------------------------------
Pair    | 0.28765    | 1.5641     | 2.4774     |  73.3 |  2.34
Bond    | 0.00031055 | 0.00094546 | 0.0024602  |   0.0 |  0.00
Kspace  | 15.829     | 16.744     | 18.02      |  22.4 | 25.04
Neigh   | 3.8314     | 3.84       | 3.8545     |   0.5 |  5.74
Comm    | 0.13372    | 0.15164    | 0.16397    |   3.1 |  0.23
Output  | 7.2496e-05 | 0.00020833 | 0.00052674 |   0.0 |  0.00
Modify  | 44.563     | 44.568     | 44.573     |   0.1 | 66.64
Other   |            | 0.007551   |            |       |  0.01

Nlocal:         731.25 ave        1134 max         279 min
Histogram: 1 0 1 0 0 0 0 0 1 1
Nghost:        6891.25 ave        9527 max        4377 min
Histogram: 1 1 0 0 0 0 0 0 1 1
Neighs:         350484 ave      565956 max       60035 min
Histogram: 1 0 0 1 0 0 0 0 0 2

Total # of neighbors = 1401934
Ave neighs/atom = 479.29368
Ave special neighs/atom = 0.043076923
Neighbor list builds = 648
Dangerous builds = 0

  unfix swp
  thermo_style custom step temp pe

next temp
jump SELF minimize_temp

  variable ftemp equal v_temp

  # Electrostatic relaxation
  fix swp bFe atom/swap 1 1 ${rand} ${temp} ke no types 6 7
  fix swp bFe atom/swap 1 1 3631288 ${temp} ke no types 6 7
  fix swp bFe atom/swap 1 1 3631288 23913 ke no types 6 7
  thermo 100
  thermo_style custom step v_ftemp pe f_swp[1] f_swp[2]
  run ${nsteps}
  run 324
WARNING: No fixes with time integration, atoms won't move (../verlet.cpp:60)
PPPM initialization ...
  using 12-bit tables for long-range coulomb (../kspace.cpp:340)
  G vector (1/distance) = 0.29588697
  grid = 45 45 200
  stencil order = 5
  estimated absolute RMS force accuracy = 0.00034195275
  estimated relative force accuracy = 1.0297805e-06
  using double precision KISS FFT
  3d grid and FFT values/proc = 446148 301725
  generated 45 of 45 mixed pair_coeff terms from arithmetic mixing rule
Per MPI rank memory allocation (min/avg/max) = 21.22 | 29.56 | 51.95 Mbytes
Step v_ftemp PotEng f_swp[1] f_swp[2] 
    2268        23913    -539496.2            0            0 
    2300        23913   -539504.35           32           22 
    2400        23913   -539486.85          132          105 
    2500        23913   -539499.25          232          193 
    2592        23913   -539571.28          324          273 
Loop time of 67.5096 on 4 procs for 324 steps with 2925 atoms

Performance: 0.207 ns/day, 115.757 hours/ns, 4.799 timesteps/s
93.9% CPU use with 4 MPI tasks x no OpenMP threads

MPI task timing breakdown:
Section |  min time  |  avg time  |  max time  |%varavg| %total
---------------------------------------------------------------
Pair    | 0.3041     | 1.6194     | 2.5765     |  74.8 |  2.40
Bond    | 0.00048944 | 0.0011766  | 0.0025287  |   2.3 |  0.00
Kspace  | 16.563     | 17.521     | 18.837     |  22.7 | 25.95
Neigh   | 3.7507     | 3.7582     | 3.7702     |   0.4 |  5.57
Comm    | 0.11419    | 0.12851    | 0.13908    |   2.7 |  0.19
Output  | 8.0428e-05 | 0.00020902 | 0.00050336 |   0.0 |  0.00
Modify  | 44.471     | 44.475     | 44.478     |   0.0 | 65.88
Other   |            | 0.006476   |            |       |  0.01

Nlocal:         731.25 ave        1134 max         279 min
Histogram: 1 0 1 0 0 0 0 0 1 1
Nghost:        6891.25 ave        9527 max        4377 min
Histogram: 1 1 0 0 0 0 0 0 1 1
Neighs:         350484 ave      565956 max       60035 min
Histogram: 1 0 0 1 0 0 0 0 0 2

Total # of neighbors = 1401934
Ave neighs/atom = 479.29368
Ave special neighs/atom = 0.043076923
Neighbor list builds = 648
Dangerous builds = 0

  unfix swp
  thermo_style custom step temp pe

next temp
jump SELF minimize_temp

  variable ftemp equal v_temp

  # Electrostatic relaxation
  fix swp bFe atom/swap 1 1 ${rand} ${temp} ke no types 6 7
  fix swp bFe atom/swap 1 1 7952271 ${temp} ke no types 6 7
  fix swp bFe atom/swap 1 1 7952271 21521 ke no types 6 7
  thermo 100
  thermo_style custom step v_ftemp pe f_swp[1] f_swp[2]
  run ${nsteps}
  run 324
WARNING: No fixes with time integration, atoms won't move (../verlet.cpp:60)
PPPM initialization ...
  using 12-bit tables for long-range coulomb (../kspace.cpp:340)
  G vector (1/distance) = 0.29588697
  grid = 45 45 200
  stencil order = 5
  estimated absolute RMS force accuracy = 0.00034195275
  estimated relative force accuracy = 1.0297805e-06
  using double precision KISS FFT
  3d grid and FFT values/proc = 446148 301725
  generated 45 of 45 mixed pair_coeff terms from arithmetic mixing rule
Per MPI rank memory allocation (min/avg/max) = 21.22 | 29.56 | 51.95 Mbytes
Step v_ftemp PotEng f_swp[1] f_swp[2] 
    2592        21521   -539571.28            0            0 
    2600        21521    -539571.4            8            7 
    2700        21521   -539519.55          108           82 
    2800        21521    -539559.7          208          159 
    2900        21521   -539568.07          308          236 
    2916        21521   -539526.96          324          249 
Loop time of 68.7429 on 4 procs for 324 steps with 2925 atoms

Performance: 0.204 ns/day, 117.872 hours/ns, 4.713 timesteps/s
93.6% CPU use with 4 MPI tasks x no OpenMP threads

MPI task timing breakdown:
Section |  min time  |  avg time  |  max time  |%varavg| %total
---------------------------------------------------------------
Pair    | 0.29351    | 1.5819     | 2.4981     |  73.8 |  2.30
Bond    | 0.00035201 | 0.00096218 | 0.0024557  |   0.0 |  0.00
Kspace  | 16.913     | 17.831     | 19.119     |  22.0 | 25.94
Neigh   | 3.8715     | 3.8802     | 3.8944     |   0.4 |  5.64
Comm    | 0.12929    | 0.14886    | 0.16144    |   3.3 |  0.22
Output  | 0.00011442 | 0.00028664 | 0.00067188 |   0.0 |  0.00
Modify  | 45.287     | 45.292     | 45.297     |   0.1 | 65.89
Other   |            | 0.007556   |            |       |  0.01

Nlocal:         731.25 ave        1134 max         279 min
Histogram: 1 0 1 0 0 0 0 0 1 1
Nghost:        6891.25 ave        9527 max        4377 min
Histogram: 1 1 0 0 0 0 0 0 1 1
Neighs:         350484 ave      565956 max       60035 min
Histogram: 1 0 0 1 0 0 0 0 0 2

Total # of neighbors = 1401934
Ave neighs/atom = 479.29368
Ave special neighs/atom = 0.043076923
Neighbor list builds = 648
Dangerous builds = 0

  unfix swp
  thermo_style custom step temp pe

next temp
jump SELF minimize_temp

  variable ftemp equal v_temp

  # Electrostatic relaxation
  fix swp bFe atom/swap 1 1 ${rand} ${temp} ke no types 6 7
  fix swp bFe atom/swap 1 1 185888 ${temp} ke no types 6 7
  fix swp bFe atom/swap 1 1 185888 19368 ke no types 6 7
  thermo 100
  thermo_style custom step v_ftemp pe f_swp[1] f_swp[2]
  run ${nsteps}
  run 324
WARNING: No fixes with time integration, atoms won't move (../verlet.cpp:60)
PPPM initialization ...
  using 12-bit tables for long-range coulomb (../kspace.cpp:340)
  G vector (1/distance) = 0.29588697
  grid = 45 45 200
  stencil order = 5
  estimated absolute RMS force accuracy = 0.00034195275
  estimated relative force accuracy = 1.0297805e-06
  using double precision KISS FFT
  3d grid and FFT values/proc = 446148 301725
  generated 45 of 45 mixed pair_coeff terms from arithmetic mixing rule
Per MPI rank memory allocation (min/avg/max) = 21.22 | 29.56 | 51.95 Mbytes
Step v_ftemp PotEng f_swp[1] f_swp[2] 
    2916        19368   -539526.96            0            0 
    3000        19368   -539554.22           84           56 
    3100        19368   -539580.78          184          134 
    3200        19368   -539545.78          284          200 
    3240        19368   -539545.97          324          232 
Loop time of 68.5816 on 4 procs for 324 steps with 2925 atoms

Performance: 0.204 ns/day, 117.595 hours/ns, 4.724 timesteps/s
94.1% CPU use with 4 MPI tasks x no OpenMP threads

MPI task timing breakdown:
Section |  min time  |  avg time  |  max time  |%varavg| %total
---------------------------------------------------------------
Pair    | 0.28747    | 1.5497     | 2.4635     |  72.7 |  2.26
Bond    | 0.00031734 | 0.00085911 | 0.0022797  |   0.0 |  0.00
Kspace  | 17.104     | 18.019     | 19.281     |  21.3 | 26.27
Neigh   | 3.8204     | 3.8297     | 3.8454     |   0.5 |  5.58
Comm    | 0.14184    | 0.16094    | 0.17397    |   3.1 |  0.23
Output  | 8.9707e-05 | 0.00022148 | 0.00051354 |   0.0 |  0.00
Modify  | 45.009     | 45.014     | 45.019     |   0.1 | 65.64
Other   |            | 0.00701    |            |       |  0.01

Nlocal:         731.25 ave        1134 max         279 min
Histogram: 1 0 1 0 0 0 0 0 1 1
Nghost:        6891.25 ave        9527 max        4377 min
Histogram: 1 1 0 0 0 0 0 0 1 1
Neighs:         350484 ave      565956 max       60035 min
Histogram: 1 0 0 1 0 0 0 0 0 2

Total # of neighbors = 1401934
Ave neighs/atom = 479.29368
Ave special neighs/atom = 0.043076923
Neighbor list builds = 648
Dangerous builds = 0

  unfix swp
  thermo_style custom step temp pe

next temp
jump SELF minimize_temp

  variable ftemp equal v_temp

  # Electrostatic relaxation
  fix swp bFe atom/swap 1 1 ${rand} ${temp} ke no types 6 7
  fix swp bFe atom/swap 1 1 7935996 ${temp} ke no types 6 7
  fix swp bFe atom/swap 1 1 7935996 17431 ke no types 6 7
  thermo 100
  thermo_style custom step v_ftemp pe f_swp[1] f_swp[2]
  run ${nsteps}
  run 324
WARNING: No fixes with time integration, atoms won't move (../verlet.cpp:60)
PPPM initialization ...
  using 12-bit tables for long-range coulomb (../kspace.cpp:340)
  G vector (1/distance) = 0.29588697
  grid = 45 45 200
  stencil order = 5
  estimated absolute RMS force accuracy = 0.00034195275
  estimated relative force accuracy = 1.0297805e-06
  using double precision KISS FFT
  3d grid and FFT values/proc = 446148 301725
  generated 45 of 45 mixed pair_coeff terms from arithmetic mixing rule
Per MPI rank memory allocation (min/avg/max) = 21.22 | 29.56 | 51.95 Mbytes
Step v_ftemp PotEng f_swp[1] f_swp[2] 
    3240        17431   -539545.97            0            0 
    3300        17431   -539543.93           60           44 
    3400        17431   -539580.73          160          124 
    3500        17431   -539494.23          260          197 
    3564        17431   -539578.43          324          238 
Loop time of 66.5742 on 4 procs for 324 steps with 2925 atoms

Performance: 0.210 ns/day, 114.153 hours/ns, 4.867 timesteps/s
94.1% CPU use with 4 MPI tasks x no OpenMP threads

MPI task timing breakdown:
Section |  min time  |  avg time  |  max time  |%varavg| %total
---------------------------------------------------------------
Pair    | 0.29537    | 1.5804     | 2.4974     |  73.5 |  2.37
Bond    | 0.00032877 | 0.0010105  | 0.0027048  |   3.1 |  0.00
Kspace  | 16.19      | 17.109     | 18.394     |  22.3 | 25.70
Neigh   | 3.9013     | 3.9107     | 3.9263     |   0.5 |  5.87
Comm    | 0.13908    | 0.15864    | 0.17198    |   3.2 |  0.24
Output  | 0.00010467 | 0.00029454 | 0.00073787 |   0.0 |  0.00
Modify  | 43.802     | 43.806     | 43.811     |   0.1 | 65.80
Other   |            | 0.007885   |            |       |  0.01

Nlocal:         731.25 ave        1134 max         279 min
Histogram: 1 0 1 0 0 0 0 0 1 1
Nghost:        6891.25 ave        9527 max        4377 min
Histogram: 1 1 0 0 0 0 0 0 1 1
Neighs:         350484 ave      565956 max       60035 min
Histogram: 1 0 0 1 0 0 0 0 0 2

Total # of neighbors = 1401934
Ave neighs/atom = 479.29368
Ave special neighs/atom = 0.043076923
Neighbor list builds = 648
Dangerous builds = 0

  unfix swp
  thermo_style custom step temp pe

next temp
jump SELF minimize_temp

  variable ftemp equal v_temp

  # Electrostatic relaxation
  fix swp bFe atom/swap 1 1 ${rand} ${temp} ke no types 6 7
  fix swp bFe atom/swap 1 1 473855 ${temp} ke no types 6 7
  fix swp bFe atom/swap 1 1 473855 15687 ke no types 6 7
  thermo 100
  thermo_style custom step v_ftemp pe f_swp[1] f_swp[2]
  run ${nsteps}
  run 324
WARNING: No fixes with time integration, atoms won't move (../verlet.cpp:60)
PPPM initialization ...
  using 12-bit tables for long-range coulomb (../kspace.cpp:340)
  G vector (1/distance) = 0.29588697
  grid = 45 45 200
  stencil order = 5
  estimated absolute RMS force accuracy = 0.00034195275
  estimated relative force accuracy = 1.0297805e-06
  using double precision KISS FFT
  3d grid and FFT values/proc = 446148 301725
  generated 45 of 45 mixed pair_coeff terms from arithmetic mixing rule
Per MPI rank memory allocation (min/avg/max) = 21.22 | 29.56 | 51.95 Mbytes
Step v_ftemp PotEng f_swp[1] f_swp[2] 
    3564        15687   -539578.43            0            0 
    3600        15687   -539590.08           36           26 
    3700        15687   -539565.06          136           93 
    3800        15687   -539520.84          236          170 
    3888        15687   -539577.33          324          232 
Loop time of 67.6389 on 4 procs for 324 steps with 2925 atoms

Performance: 0.207 ns/day, 115.979 hours/ns, 4.790 timesteps/s
94.0% CPU use with 4 MPI tasks x no OpenMP threads

MPI task timing breakdown:
Section |  min time  |  avg time  |  max time  |%varavg| %total
---------------------------------------------------------------
Pair    | 0.29486    | 1.5898     | 2.5274     |  74.1 |  2.35
Bond    | 0.00041247 | 0.00098906 | 0.0024186  |   0.0 |  0.00
Kspace  | 16.446     | 17.385     | 18.681     |  22.4 | 25.70
Neigh   | 3.7803     | 3.7883     | 3.8013     |   0.4 |  5.60
Comm    | 0.12262    | 0.13847    | 0.15015    |   2.9 |  0.20
Output  | 7.4211e-05 | 0.00018092 | 0.00040856 |   0.0 |  0.00
Modify  | 44.725     | 44.729     | 44.733     |   0.1 | 66.13
Other   |            | 0.006819   |            |       |  0.01

Nlocal:         731.25 ave        1134 max         279 min
Histogram: 1 0 1 0 0 0 0 0 1 1
Nghost:        6891.25 ave        9527 max        4377 min
Histogram: 1 1 0 0 0 0 0 0 1 1
Neighs:         350484 ave      565956 max       60035 min
Histogram: 1 0 0 1 0 0 0 0 0 2

Total # of neighbors = 1401934
Ave neighs/atom = 479.29368
Ave special neighs/atom = 0.043076923
Neighbor list builds = 648
Dangerous builds = 0

  unfix swp
  thermo_style custom step temp pe

next temp
jump SELF minimize_temp

  variable ftemp equal v_temp

  # Electrostatic relaxation
  fix swp bFe atom/swap 1 1 ${rand} ${temp} ke no types 6 7
  fix swp bFe atom/swap 1 1 7716369 ${temp} ke no types 6 7
  fix swp bFe atom/swap 1 1 7716369 14118 ke no types 6 7
  thermo 100
  thermo_style custom step v_ftemp pe f_swp[1] f_swp[2]
  run ${nsteps}
  run 324
WARNING: No fixes with time integration, atoms won't move (../verlet.cpp:60)
PPPM initialization ...
  using 12-bit tables for long-range coulomb (../kspace.cpp:340)
  G vector (1/distance) = 0.29588697
  grid = 45 45 200
  stencil order = 5
  estimated absolute RMS force accuracy = 0.00034195275
  estimated relative force accuracy = 1.0297805e-06
  using double precision KISS FFT
  3d grid and FFT values/proc = 446148 301725
  generated 45 of 45 mixed pair_coeff terms from arithmetic mixing rule
Per MPI rank memory allocation (min/avg/max) = 21.22 | 29.56 | 51.95 Mbytes
Step v_ftemp PotEng f_swp[1] f_swp[2] 
    3888        14118   -539577.33            0            0 
    3900        14118   -539515.75           12           10 
    4000        14118      -539527          112           87 
    4100        14118   -539508.94          212          151 
    4200        14118   -539557.32          312          213 
    4212        14118    -539552.8          324          222 
Loop time of 71.0506 on 4 procs for 324 steps with 2925 atoms

Performance: 0.197 ns/day, 121.829 hours/ns, 4.560 timesteps/s
92.3% CPU use with 4 MPI tasks x no OpenMP threads

MPI task timing breakdown:
Section |  min time  |  avg time  |  max time  |%varavg| %total
---------------------------------------------------------------
Pair    | 0.29389    | 1.5993     | 2.5644     |  73.9 |  2.25
Bond    | 0.00041519 | 0.00097384 | 0.0024624  |   0.0 |  0.00
Kspace  | 17.269     | 18.245     | 19.545     |  21.9 | 25.68
Neigh   | 3.9693     | 3.991      | 4.0082     |   0.8 |  5.62
Comm    | 0.16116    | 0.18569    | 0.20748    |   3.9 |  0.26
Output  | 0.00011824 | 0.0003307  | 0.00076037 |   0.0 |  0.00
Modify  | 47.012     | 47.021     | 47.036     |   0.1 | 66.18
Other   |            | 0.007427   |            |       |  0.01

Nlocal:         731.25 ave        1134 max         279 min
Histogram: 1 0 1 0 0 0 0 0 1 1
Nghost:        6891.25 ave        9527 max        4377 min
Histogram: 1 1 0 0 0 0 0 0 1 1
Neighs:         350484 ave      565956 max       60035 min
Histogram: 1 0 0 1 0 0 0 0 0 2

Total # of neighbors = 1401934
Ave neighs/atom = 479.29368
Ave special neighs/atom = 0.043076923
Neighbor list builds = 648
Dangerous builds = 0

  unfix swp
  thermo_style custom step temp pe

next temp
jump SELF minimize_temp

  variable ftemp equal v_temp

  # Electrostatic relaxation
  fix swp bFe atom/swap 1 1 ${rand} ${temp} ke no types 6 7
  fix swp bFe atom/swap 1 1 8487327 ${temp} ke no types 6 7
  fix swp bFe atom/swap 1 1 8487327 12706 ke no types 6 7
  thermo 100
  thermo_style custom step v_ftemp pe f_swp[1] f_swp[2]
  run ${nsteps}
  run 324
WARNING: No fixes with time integration, atoms won't move (../verlet.cpp:60)
PPPM initialization ...
  using 12-bit tables for long-range coulomb (../kspace.cpp:340)
  G vector (1/distance) = 0.29588697
  grid = 45 45 200
  stencil order = 5
  estimated absolute RMS force accuracy = 0.00034195275
  estimated relative force accuracy = 1.0297805e-06
  using double precision KISS FFT
  3d grid and FFT values/proc = 446148 301725
  generated 45 of 45 mixed pair_coeff terms from arithmetic mixing rule
Per MPI rank memory allocation (min/avg/max) = 21.22 | 29.56 | 51.95 Mbytes
Step v_ftemp PotEng f_swp[1] f_swp[2] 
    4212        12706    -539552.8            0            0 
    4300        12706   -539594.12           88           60 
    4400        12706   -539597.65          188          126 
    4500        12706   -539588.51          288          194 
    4536        12706   -539624.23          324          217 
Loop time of 76.7288 on 4 procs for 324 steps with 2925 atoms

Performance: 0.182 ns/day, 131.565 hours/ns, 4.223 timesteps/s
88.3% CPU use with 4 MPI tasks x no OpenMP threads

MPI task timing breakdown:
Section |  min time  |  avg time  |  max time  |%varavg| %total
---------------------------------------------------------------
Pair    | 0.31357    | 1.7628     | 2.7963     |  79.0 |  2.30
Bond    | 0.00069716 | 0.0012839  | 0.0028908  |   2.6 |  0.00
Kspace  | 18.921     | 19.955     | 21.403     |  23.5 | 26.01
Neigh   | 4.5566     | 4.5715     | 4.5945     |   0.7 |  5.96
Comm    | 0.16332    | 0.20094    | 0.22711    |   5.4 |  0.26
Output  | 0.00012064 | 0.00030593 | 0.00065827 |   0.0 |  0.00
Modify  | 50.217     | 50.229     | 50.24      |   0.2 | 65.46
Other   |            | 0.008242   |            |       |  0.01

Nlocal:         731.25 ave        1134 max         279 min
Histogram: 1 0 1 0 0 0 0 0 1 1
Nghost:        6891.25 ave        9527 max        4377 min
Histogram: 1 1 0 0 0 0 0 0 1 1
Neighs:         350484 ave      565956 max       60035 min
Histogram: 1 0 0 1 0 0 0 0 0 2

Total # of neighbors = 1401934
Ave neighs/atom = 479.29368
Ave special neighs/atom = 0.043076923
Neighbor list builds = 648
Dangerous builds = 0

  unfix swp
  thermo_style custom step temp pe

next temp
jump SELF minimize_temp

  variable ftemp equal v_temp

  # Electrostatic relaxation
  fix swp bFe atom/swap 1 1 ${rand} ${temp} ke no types 6 7
  fix swp bFe atom/swap 1 1 8505477 ${temp} ke no types 6 7
  fix swp bFe atom/swap 1 1 8505477 11435 ke no types 6 7
  thermo 100
  thermo_style custom step v_ftemp pe f_swp[1] f_swp[2]
  run ${nsteps}
  run 324
WARNING: No fixes with time integration, atoms won't move (../verlet.cpp:60)
PPPM initialization ...
  using 12-bit tables for long-range coulomb (../kspace.cpp:340)
  G vector (1/distance) = 0.29588697
  grid = 45 45 200
  stencil order = 5
  estimated absolute RMS force accuracy = 0.00034195275
  estimated relative force accuracy = 1.0297805e-06
  using double precision KISS FFT
  3d grid and FFT values/proc = 446148 301725
  generated 45 of 45 mixed pair_coeff terms from arithmetic mixing rule
Per MPI rank memory allocation (min/avg/max) = 21.22 | 29.56 | 51.95 Mbytes
Step v_ftemp PotEng f_swp[1] f_swp[2] 
    4536        11435   -539624.23            0            0 
    4600        11435   -539581.65           64           39 
    4700        11435   -539598.59          164          100 
    4800        11435   -539573.52          264          146 
    4860        11435   -539543.49          324          184 
Loop time of 70.5351 on 4 procs for 324 steps with 2925 atoms

Performance: 0.198 ns/day, 120.945 hours/ns, 4.593 timesteps/s
91.8% CPU use with 4 MPI tasks x no OpenMP threads

MPI task timing breakdown:
Section |  min time  |  avg time  |  max time  |%varavg| %total
---------------------------------------------------------------
Pair    | 0.29758    | 1.6525     | 2.6739     |  76.7 |  2.34
Bond    | 0.0006034  | 0.0011538  | 0.0027322  |   2.7 |  0.00
Kspace  | 16.916     | 17.943     | 19.293     |  23.3 | 25.44
Neigh   | 4.0509     | 4.0609     | 4.0762     |   0.5 |  5.76
Comm    | 0.14559    | 0.16894    | 0.18156    |   3.5 |  0.24
Output  | 7.5982e-05 | 0.00021075 | 0.00052345 |   0.0 |  0.00
Modify  | 46.696     | 46.701     | 46.706     |   0.1 | 66.21
Other   |            | 0.007508   |            |       |  0.01

Nlocal:         731.25 ave        1134 max         279 min
Histogram: 1 0 1 0 0 0 0 0 1 1
Nghost:        6891.25 ave        9527 max        4377 min
Histogram: 1 1 0 0 0 0 0 0 1 1
Neighs:         350484 ave      565956 max       60035 min
Histogram: 1 0 0 1 0 0 0 0 0 2

Total # of neighbors = 1401934
Ave neighs/atom = 479.29368
Ave special neighs/atom = 0.043076923
Neighbor list builds = 648
Dangerous builds = 0

  unfix swp
  thermo_style custom step temp pe

next temp
jump SELF minimize_temp

  variable ftemp equal v_temp

  # Electrostatic relaxation
  fix swp bFe atom/swap 1 1 ${rand} ${temp} ke no types 6 7
  fix swp bFe atom/swap 1 1 980195 ${temp} ke no types 6 7
  fix swp bFe atom/swap 1 1 980195 10291 ke no types 6 7
  thermo 100
  thermo_style custom step v_ftemp pe f_swp[1] f_swp[2]
  run ${nsteps}
  run 324
WARNING: No fixes with time integration, atoms won't move (../verlet.cpp:60)
PPPM initialization ...
  using 12-bit tables for long-range coulomb (../kspace.cpp:340)
  G vector (1/distance) = 0.29588697
  grid = 45 45 200
  stencil order = 5
  estimated absolute RMS force accuracy = 0.00034195275
  estimated relative force accuracy = 1.0297805e-06
  using double precision KISS FFT
  3d grid and FFT values/proc = 446148 301725
  generated 45 of 45 mixed pair_coeff terms from arithmetic mixing rule
Per MPI rank memory allocation (min/avg/max) = 21.22 | 29.56 | 51.95 Mbytes
Step v_ftemp PotEng f_swp[1] f_swp[2] 
    4860        10291   -539543.49            0            0 
    4900        10291   -539599.46           40           26 
    5000        10291   -539622.14          140           90 
    5100        10291   -539575.98          240          162 
    5184        10291   -539582.41          324          214 
Loop time of 75.0368 on 4 procs for 324 steps with 2925 atoms

Performance: 0.187 ns/day, 128.664 hours/ns, 4.318 timesteps/s
89.8% CPU use with 4 MPI tasks x no OpenMP threads

MPI task timing breakdown:
Section |  min time  |  avg time  |  max time  |%varavg| %total
---------------------------------------------------------------
Pair    | 0.31809    | 1.7321     | 2.7637     |  76.9 |  2.31
Bond    | 0.00068384 | 0.0013104  | 0.003029   |   2.7 |  0.00
Kspace  | 18.247     | 19.269     | 20.695     |  23.1 | 25.68
Neigh   | 4.2838     | 4.3008     | 4.3357     |   1.0 |  5.73
Comm    | 0.21077    | 0.2314     | 0.25731    |   3.5 |  0.31
Output  | 9.8208e-05 | 0.0014199  | 0.0022413  |   2.2 |  0.00
Modify  | 49.478     | 49.492     | 49.506     |   0.1 | 65.96
Other   |            | 0.008508   |            |       |  0.01

Nlocal:         731.25 ave        1134 max         279 min
Histogram: 1 0 1 0 0 0 0 0 1 1
Nghost:        6891.25 ave        9527 max        4377 min
Histogram: 1 1 0 0 0 0 0 0 1 1
Neighs:         350484 ave      565956 max       60035 min
Histogram: 1 0 0 1 0 0 0 0 0 2

Total # of neighbors = 1401934
Ave neighs/atom = 479.29368
Ave special neighs/atom = 0.043076923
Neighbor list builds = 648
Dangerous builds = 0

  unfix swp
  thermo_style custom step temp pe

next temp
jump SELF minimize_temp

  variable ftemp equal v_temp

  # Electrostatic relaxation
  fix swp bFe atom/swap 1 1 ${rand} ${temp} ke no types 6 7
  fix swp bFe atom/swap 1 1 2065900 ${temp} ke no types 6 7
  fix swp bFe atom/swap 1 1 2065900 9261 ke no types 6 7
  thermo 100
  thermo_style custom step v_ftemp pe f_swp[1] f_swp[2]
  run ${nsteps}
  run 324
WARNING: No fixes with time integration, atoms won't move (../verlet.cpp:60)
PPPM initialization ...
  using 12-bit tables for long-range coulomb (../kspace.cpp:340)
  G vector (1/distance) = 0.29588697
  grid = 45 45 200
  stencil order = 5
  estimated absolute RMS force accuracy = 0.00034195275
  estimated relative force accuracy = 1.0297805e-06
  using double precision KISS FFT
  3d grid and FFT values/proc = 446148 301725
  generated 45 of 45 mixed pair_coeff terms from arithmetic mixing rule
Per MPI rank memory allocation (min/avg/max) = 21.22 | 29.56 | 51.95 Mbytes
Step v_ftemp PotEng f_swp[1] f_swp[2] 
    5184         9261   -539582.41            0            0 
    5200         9261   -539600.96           16            9 
    5300         9261   -539602.44          116           56 
    5400         9261   -539560.21          216          117 
    5500         9261    -539515.1          316          178 
    5508         9261   -539570.82          324          184 
Loop time of 71.2366 on 4 procs for 324 steps with 2925 atoms

Performance: 0.196 ns/day, 122.148 hours/ns, 4.548 timesteps/s
91.5% CPU use with 4 MPI tasks x no OpenMP threads

MPI task timing breakdown:
Section |  min time  |  avg time  |  max time  |%varavg| %total
---------------------------------------------------------------
Pair    | 0.30327    | 1.646      | 2.6817     |  75.8 |  2.31
Bond    | 0.00067572 | 0.0012352  | 0.0026526  |   2.3 |  0.00
Kspace  | 17.415     | 18.455     | 19.796     |  22.7 | 25.91
Neigh   | 4.0949     | 4.109      | 4.1256     |   0.6 |  5.77
Comm    | 0.13288    | 0.15485    | 0.17362    |   3.8 |  0.22
Output  | 0.0001012  | 0.00023623 | 0.00051476 |   0.0 |  0.00
Modify  | 46.858     | 46.863     | 46.866     |   0.1 | 65.78
Other   |            | 0.007727   |            |       |  0.01

Nlocal:         731.25 ave        1134 max         279 min
Histogram: 1 0 1 0 0 0 0 0 1 1
Nghost:        6891.25 ave        9527 max        4377 min
Histogram: 1 1 0 0 0 0 0 0 1 1
Neighs:         350484 ave      565956 max       60035 min
Histogram: 1 0 0 1 0 0 0 0 0 2

Total # of neighbors = 1401934
Ave neighs/atom = 479.29368
Ave special neighs/atom = 0.043076923
Neighbor list builds = 648
Dangerous builds = 0

  unfix swp
  thermo_style custom step temp pe

next temp
jump SELF minimize_temp

  variable ftemp equal v_temp

  # Electrostatic relaxation
  fix swp bFe atom/swap 1 1 ${rand} ${temp} ke no types 6 7
  fix swp bFe atom/swap 1 1 5185835 ${temp} ke no types 6 7
  fix swp bFe atom/swap 1 1 5185835 8334 ke no types 6 7
  thermo 100
  thermo_style custom step v_ftemp pe f_swp[1] f_swp[2]
  run ${nsteps}
  run 324
WARNING: No fixes with time integration, atoms won't move (../verlet.cpp:60)
PPPM initialization ...
  using 12-bit tables for long-range coulomb (../kspace.cpp:340)
  G vector (1/distance) = 0.29588697
  grid = 45 45 200
  stencil order = 5
  estimated absolute RMS force accuracy = 0.00034195275
  estimated relative force accuracy = 1.0297805e-06
  using double precision KISS FFT
  3d grid and FFT values/proc = 446148 301725
  generated 45 of 45 mixed pair_coeff terms from arithmetic mixing rule
Per MPI rank memory allocation (min/avg/max) = 21.22 | 29.56 | 51.95 Mbytes
Step v_ftemp PotEng f_swp[1] f_swp[2] 
    5508         8334   -539570.82            0            0 
    5600         8334   -539595.27           92           55 
    5700         8334   -539573.04          192           98 
    5800         8334   -539590.42          292          155 
    5832         8334   -539510.97          324          179 
Loop time of 68.4451 on 4 procs for 324 steps with 2925 atoms

Performance: 0.204 ns/day, 117.361 hours/ns, 4.734 timesteps/s
93.8% CPU use with 4 MPI tasks x no OpenMP threads

MPI task timing breakdown:
Section |  min time  |  avg time  |  max time  |%varavg| %total
---------------------------------------------------------------
Pair    | 0.28835    | 1.5936     | 2.5574     |  74.6 |  2.33
Bond    | 0.00054113 | 0.0011065  | 0.0024092  |   2.3 |  0.00
Kspace  | 16.933     | 17.906     | 19.203     |  22.2 | 26.16
Neigh   | 3.8123     | 3.8198     | 3.8344     |   0.5 |  5.58
Comm    | 0.12623    | 0.15037    | 0.16675    |   3.8 |  0.22
Output  | 7.5557e-05 | 0.0002145  | 0.00054349 |   0.0 |  0.00
Modify  | 44.965     | 44.968     | 44.972     |   0.0 | 65.70
Other   |            | 0.006715   |            |       |  0.01

Nlocal:         731.25 ave        1134 max         279 min
Histogram: 1 0 1 0 0 0 0 0 1 1
Nghost:        6891.25 ave        9527 max        4377 min
Histogram: 1 1 0 0 0 0 0 0 1 1
Neighs:         350484 ave      565956 max       60035 min
Histogram: 1 0 0 1 0 0 0 0 0 2

Total # of neighbors = 1401934
Ave neighs/atom = 479.29368
Ave special neighs/atom = 0.043076923
Neighbor list builds = 648
Dangerous builds = 0

  unfix swp
  thermo_style custom step temp pe

next temp
jump SELF minimize_temp

  variable ftemp equal v_temp

  # Electrostatic relaxation
  fix swp bFe atom/swap 1 1 ${rand} ${temp} ke no types 6 7
  fix swp bFe atom/swap 1 1 3359353 ${temp} ke no types 6 7
  fix swp bFe atom/swap 1 1 3359353 7500 ke no types 6 7
  thermo 100
  thermo_style custom step v_ftemp pe f_swp[1] f_swp[2]
  run ${nsteps}
  run 324
WARNING: No fixes with time integration, atoms won't move (../verlet.cpp:60)
PPPM initialization ...
  using 12-bit tables for long-range coulomb (../kspace.cpp:340)
  G vector (1/distance) = 0.29588697
  grid = 45 45 200
  stencil order = 5
  estimated absolute RMS force accuracy = 0.00034195275
  estimated relative force accuracy = 1.0297805e-06
  using double precision KISS FFT
  3d grid and FFT values/proc = 446148 301725
  generated 45 of 45 mixed pair_coeff terms from arithmetic mixing rule
Per MPI rank memory allocation (min/avg/max) = 21.22 | 29.56 | 51.95 Mbytes
Step v_ftemp PotEng f_swp[1] f_swp[2] 
    5832         7500   -539510.97            0            0 
    5900         7500   -539605.57           68           44 
    6000         7500   -539555.94          168           83 
    6100         7500   -539616.04          268          119 
    6156         7500   -539540.77          324          153 
Loop time of 72.4248 on 4 procs for 324 steps with 2925 atoms

Performance: 0.193 ns/day, 124.185 hours/ns, 4.474 timesteps/s
90.9% CPU use with 4 MPI tasks x no OpenMP threads

MPI task timing breakdown:
Section |  min time  |  avg time  |  max time  |%varavg| %total
---------------------------------------------------------------
Pair    | 0.30068    | 1.6706     | 2.6766     |  77.0 |  2.31
Bond    | 0.00060464 | 0.0012302  | 0.0028098  |   2.6 |  0.00
Kspace  | 18.131     | 19.139     | 20.515     |  22.8 | 26.43
Neigh   | 4.1335     | 4.1421     | 4.1569     |   0.5 |  5.72
Comm    | 0.14123    | 0.17102    | 0.19716    |   4.8 |  0.24
Output  | 8.258e-05  | 0.000186   | 0.00039328 |   0.0 |  0.00
Modify  | 47.278     | 47.292     | 47.311     |   0.2 | 65.30
Other   |            | 0.009452   |            |       |  0.01

Nlocal:         731.25 ave        1134 max         279 min
Histogram: 1 0 1 0 0 0 0 0 1 1
Nghost:        6891.25 ave        9527 max        4377 min
Histogram: 1 1 0 0 0 0 0 0 1 1
Neighs:         350484 ave      565956 max       60035 min
Histogram: 1 0 0 1 0 0 0 0 0 2

Total # of neighbors = 1401934
Ave neighs/atom = 479.29368
Ave special neighs/atom = 0.043076923
Neighbor list builds = 648
Dangerous builds = 0

  unfix swp
  thermo_style custom step temp pe

next temp
jump SELF minimize_temp

  variable ftemp equal v_temp

  # Electrostatic relaxation
  fix swp bFe atom/swap 1 1 ${rand} ${temp} ke no types 6 7
  fix swp bFe atom/swap 1 1 6806545 ${temp} ke no types 6 7
  fix swp bFe atom/swap 1 1 6806545 6750 ke no types 6 7
  thermo 100
  thermo_style custom step v_ftemp pe f_swp[1] f_swp[2]
  run ${nsteps}
  run 324
WARNING: No fixes with time integration, atoms won't move (../verlet.cpp:60)
PPPM initialization ...
  using 12-bit tables for long-range coulomb (../kspace.cpp:340)
  G vector (1/distance) = 0.29588697
  grid = 45 45 200
  stencil order = 5
  estimated absolute RMS force accuracy = 0.00034195275
  estimated relative force accuracy = 1.0297805e-06
  using double precision KISS FFT
  3d grid and FFT values/proc = 446148 301725
  generated 45 of 45 mixed pair_coeff terms from arithmetic mixing rule
Per MPI rank memory allocation (min/avg/max) = 21.22 | 29.56 | 51.95 Mbytes
Step v_ftemp PotEng f_swp[1] f_swp[2] 
    6156         6750   -539540.77            0            0 
    6200         6750   -539557.93           44           24 
    6300         6750   -539553.98          144           81 
    6400         6750    -539615.9          244          131 
    6480         6750   -539601.83          324          166 
Loop time of 72.595 on 4 procs for 324 steps with 2925 atoms

Performance: 0.193 ns/day, 124.477 hours/ns, 4.463 timesteps/s
90.7% CPU use with 4 MPI tasks x no OpenMP threads

MPI task timing breakdown:
Section |  min time  |  avg time  |  max time  |%varavg| %total
---------------------------------------------------------------
Pair    | 0.30831    | 1.6869     | 2.6796     |  75.6 |  2.32
Bond    | 0.00064148 | 0.0013044  | 0.0029757  |   2.7 |  0.00
Kspace  | 17.829     | 18.823     | 20.202     |  22.7 | 25.93
Neigh   | 4.1169     | 4.1235     | 4.1374     |   0.4 |  5.68
Comm    | 0.13909    | 0.15736    | 0.1696     |   3.0 |  0.22
Output  | 9.2415e-05 | 0.00022468 | 0.00052918 |   0.0 |  0.00
Modify  | 47.79      | 47.795     | 47.799     |   0.1 | 65.84
Other   |            | 0.008301   |            |       |  0.01

Nlocal:         731.25 ave        1134 max         279 min
Histogram: 1 0 1 0 0 0 0 0 1 1
Nghost:        6891.25 ave        9527 max        4377 min
Histogram: 1 1 0 0 0 0 0 0 1 1
Neighs:         350484 ave      565956 max       60035 min
Histogram: 1 0 0 1 0 0 0 0 0 2

Total # of neighbors = 1401934
Ave neighs/atom = 479.29368
Ave special neighs/atom = 0.043076923
Neighbor list builds = 648
Dangerous builds = 0

  unfix swp
  thermo_style custom step temp pe

next temp
jump SELF minimize_temp

  variable ftemp equal v_temp

  # Electrostatic relaxation
  fix swp bFe atom/swap 1 1 ${rand} ${temp} ke no types 6 7
  fix swp bFe atom/swap 1 1 594805 ${temp} ke no types 6 7
  fix swp bFe atom/swap 1 1 594805 6075 ke no types 6 7
  thermo 100
  thermo_style custom step v_ftemp pe f_swp[1] f_swp[2]
  run ${nsteps}
  run 324
WARNING: No fixes with time integration, atoms won't move (../verlet.cpp:60)
PPPM initialization ...
  using 12-bit tables for long-range coulomb (../kspace.cpp:340)
  G vector (1/distance) = 0.29588697
  grid = 45 45 200
  stencil order = 5
  estimated absolute RMS force accuracy = 0.00034195275
  estimated relative force accuracy = 1.0297805e-06
  using double precision KISS FFT
  3d grid and FFT values/proc = 446148 301725
  generated 45 of 45 mixed pair_coeff terms from arithmetic mixing rule
Per MPI rank memory allocation (min/avg/max) = 21.22 | 29.56 | 51.95 Mbytes
Step v_ftemp PotEng f_swp[1] f_swp[2] 
    6480         6075   -539601.83            0            0 
    6500         6075   -539619.32           20            6 
    6600         6075    -539608.5          120           55 
    6700         6075   -539623.58          220           87 
    6800         6075   -539582.99          320          127 
    6804         6075   -539568.21          324          130 
Loop time of 71.2173 on 4 procs for 324 steps with 2925 atoms

Performance: 0.197 ns/day, 122.115 hours/ns, 4.549 timesteps/s
91.8% CPU use with 4 MPI tasks x no OpenMP threads

MPI task timing breakdown:
Section |  min time  |  avg time  |  max time  |%varavg| %total
---------------------------------------------------------------
Pair    | 0.30068    | 1.6366     | 2.6097     |  74.5 |  2.30
Bond    | 0.00050497 | 0.0011443  | 0.0027854  |   2.8 |  0.00
Kspace  | 17.301     | 18.262     | 19.594     |  22.2 | 25.64
Neigh   | 4.2118     | 4.2235     | 4.246      |   0.6 |  5.93
Comm    | 0.16273    | 0.18712    | 0.21439    |   4.3 |  0.26
Output  | 0.00012121 | 0.00033274 | 0.00081773 |   0.0 |  0.00
Modify  | 46.888     | 46.898     | 46.905     |   0.1 | 65.85
Other   |            | 0.008725   |            |       |  0.01

Nlocal:         731.25 ave        1134 max         279 min
Histogram: 1 0 1 0 0 0 0 0 1 1
Nghost:        6891.25 ave        9527 max        4377 min
Histogram: 1 1 0 0 0 0 0 0 1 1
Neighs:         350484 ave      565956 max       60035 min
Histogram: 1 0 0 1 0 0 0 0 0 2

Total # of neighbors = 1401934
Ave neighs/atom = 479.29368
Ave special neighs/atom = 0.043076923
Neighbor list builds = 648
Dangerous builds = 0

  unfix swp
  thermo_style custom step temp pe

next temp
jump SELF minimize_temp

  variable ftemp equal v_temp

  # Electrostatic relaxation
  fix swp bFe atom/swap 1 1 ${rand} ${temp} ke no types 6 7
  fix swp bFe atom/swap 1 1 3129163 ${temp} ke no types 6 7
  fix swp bFe atom/swap 1 1 3129163 5467 ke no types 6 7
  thermo 100
  thermo_style custom step v_ftemp pe f_swp[1] f_swp[2]
  run ${nsteps}
  run 324
WARNING: No fixes with time integration, atoms won't move (../verlet.cpp:60)
PPPM initialization ...
  using 12-bit tables for long-range coulomb (../kspace.cpp:340)
  G vector (1/distance) = 0.29588697
  grid = 45 45 200
  stencil order = 5
  estimated absolute RMS force accuracy = 0.00034195275
  estimated relative force accuracy = 1.0297805e-06
  using double precision KISS FFT
  3d grid and FFT values/proc = 446148 301725
  generated 45 of 45 mixed pair_coeff terms from arithmetic mixing rule
Per MPI rank memory allocation (min/avg/max) = 21.22 | 29.56 | 51.95 Mbytes
Step v_ftemp PotEng f_swp[1] f_swp[2] 
    6804         5467   -539568.21            0            0 
    6900         5467   -539606.16           96           33 
    7000         5467   -539608.01          196           71 
    7100         5467   -539584.08          296          116 
    7128         5467   -539611.88          324          127 
Loop time of 71.8185 on 4 procs for 324 steps with 2925 atoms

Performance: 0.195 ns/day, 123.146 hours/ns, 4.511 timesteps/s
91.8% CPU use with 4 MPI tasks x no OpenMP threads

MPI task timing breakdown:
Section |  min time  |  avg time  |  max time  |%varavg| %total
---------------------------------------------------------------
Pair    | 0.29485    | 1.625      | 2.5859     |  74.9 |  2.26
Bond    | 0.00050363 | 0.0010365  | 0.0025134  |   2.6 |  0.00
Kspace  | 17.68      | 18.634     | 19.964     |  22.1 | 25.95
Neigh   | 4.0164     | 4.0243     | 4.0361     |   0.4 |  5.60
Comm    | 0.15802    | 0.17256    | 0.18708    |   2.6 |  0.24
Output  | 8.9738e-05 | 0.00019176 | 0.00039068 |   0.0 |  0.00
Modify  | 47.346     | 47.353     | 47.359     |   0.1 | 65.93
Other   |            | 0.007877   |            |       |  0.01

Nlocal:         731.25 ave        1134 max         279 min
Histogram: 1 0 1 0 0 0 0 0 1 1
Nghost:        6891.25 ave        9527 max        4377 min
Histogram: 1 1 0 0 0 0 0 0 1 1
Neighs:         350484 ave      565956 max       60035 min
Histogram: 1 0 0 1 0 0 0 0 0 2

Total # of neighbors = 1401934
Ave neighs/atom = 479.29368
Ave special neighs/atom = 0.043076923
Neighbor list builds = 648
Dangerous builds = 0

  unfix swp
  thermo_style custom step temp pe

next temp
jump SELF minimize_temp

  variable ftemp equal v_temp

  # Electrostatic relaxation
  fix swp bFe atom/swap 1 1 ${rand} ${temp} ke no types 6 7
  fix swp bFe atom/swap 1 1 8397505 ${temp} ke no types 6 7
  fix swp bFe atom/swap 1 1 8397505 4920 ke no types 6 7
  thermo 100
  thermo_style custom step v_ftemp pe f_swp[1] f_swp[2]
  run ${nsteps}
  run 324
WARNING: No fixes with time integration, atoms won't move (../verlet.cpp:60)
PPPM initialization ...
  using 12-bit tables for long-range coulomb (../kspace.cpp:340)
  G vector (1/distance) = 0.29588697
  grid = 45 45 200
  stencil order = 5
  estimated absolute RMS force accuracy = 0.00034195275
  estimated relative force accuracy = 1.0297805e-06
  using double precision KISS FFT
  3d grid and FFT values/proc = 446148 301725
  generated 45 of 45 mixed pair_coeff terms from arithmetic mixing rule
Per MPI rank memory allocation (min/avg/max) = 21.22 | 29.56 | 51.95 Mbytes
Step v_ftemp PotEng f_swp[1] f_swp[2] 
    7128         4920   -539611.88            0            0 
    7200         4920   -539598.14           72           24 
    7300         4920   -539640.33          172           51 
    7400         4920   -539617.12          272           96 
    7452         4920   -539608.49          324          118 
Loop time of 71.8662 on 4 procs for 324 steps with 2925 atoms

Performance: 0.195 ns/day, 123.227 hours/ns, 4.508 timesteps/s
91.8% CPU use with 4 MPI tasks x no OpenMP threads

MPI task timing breakdown:
Section |  min time  |  avg time  |  max time  |%varavg| %total
---------------------------------------------------------------
Pair    | 0.31149    | 1.6328     | 2.5759     |  74.7 |  2.27
Bond    | 0.00049978 | 0.0010485  | 0.0025083  |   2.6 |  0.00
Kspace  | 17.559     | 18.512     | 19.824     |  22.2 | 25.76
Neigh   | 3.9503     | 3.9584     | 3.9719     |   0.4 |  5.51
Comm    | 0.13546    | 0.16317    | 0.18486    |   4.7 |  0.23
Output  | 0.00010584 | 0.00024578 | 0.00054708 |   0.0 |  0.00
Modify  | 47.583     | 47.591     | 47.608     |   0.1 | 66.22
Other   |            | 0.007479   |            |       |  0.01

Nlocal:         731.25 ave        1134 max         279 min
Histogram: 1 0 1 0 0 0 0 0 1 1
Nghost:        6891.25 ave        9527 max        4377 min
Histogram: 1 1 0 0 0 0 0 0 1 1
Neighs:         350484 ave      565956 max       60035 min
Histogram: 1 0 0 1 0 0 0 0 0 2

Total # of neighbors = 1401934
Ave neighs/atom = 479.29368
Ave special neighs/atom = 0.043076923
Neighbor list builds = 648
Dangerous builds = 0

  unfix swp
  thermo_style custom step temp pe

next temp
jump SELF minimize_temp

  variable ftemp equal v_temp

  # Electrostatic relaxation
  fix swp bFe atom/swap 1 1 ${rand} ${temp} ke no types 6 7
  fix swp bFe atom/swap 1 1 7746391 ${temp} ke no types 6 7
  fix swp bFe atom/swap 1 1 7746391 4428 ke no types 6 7
  thermo 100
  thermo_style custom step v_ftemp pe f_swp[1] f_swp[2]
  run ${nsteps}
  run 324
WARNING: No fixes with time integration, atoms won't move (../verlet.cpp:60)
PPPM initialization ...
  using 12-bit tables for long-range coulomb (../kspace.cpp:340)
  G vector (1/distance) = 0.29588697
  grid = 45 45 200
  stencil order = 5
  estimated absolute RMS force accuracy = 0.00034195275
  estimated relative force accuracy = 1.0297805e-06
  using double precision KISS FFT
  3d grid and FFT values/proc = 446148 301725
  generated 45 of 45 mixed pair_coeff terms from arithmetic mixing rule
Per MPI rank memory allocation (min/avg/max) = 21.22 | 29.56 | 51.95 Mbytes
Step v_ftemp PotEng f_swp[1] f_swp[2] 
    7452         4428   -539608.49            0            0 
    7500         4428    -539566.8           48           20 
    7600         4428    -539609.3          148           57 
    7700         4428   -539616.93          248           85 
    7776         4428   -539612.88          324          107 
Loop time of 73.493 on 4 procs for 324 steps with 2925 atoms

Performance: 0.190 ns/day, 126.017 hours/ns, 4.409 timesteps/s
90.7% CPU use with 4 MPI tasks x no OpenMP threads

MPI task timing breakdown:
Section |  min time  |  avg time  |  max time  |%varavg| %total
---------------------------------------------------------------
Pair    | 0.30156    | 1.6544     | 2.6468     |  76.0 |  2.25
Bond    | 0.00062408 | 0.001189   | 0.0027381  |   2.6 |  0.00
Kspace  | 18.34      | 19.336     | 20.685     |  22.2 | 26.31
Neigh   | 4.1287     | 4.1407     | 4.1586     |   0.6 |  5.63
Comm    | 0.15592    | 0.17732    | 0.18826    |   3.1 |  0.24
Output  | 9.0843e-05 | 0.00022462 | 0.00052537 |   0.0 |  0.00
Modify  | 48.165     | 48.175     | 48.181     |   0.1 | 65.55
Other   |            | 0.007908   |            |       |  0.01

Nlocal:         731.25 ave        1134 max         279 min
Histogram: 1 0 1 0 0 0 0 0 1 1
Nghost:        6891.25 ave        9527 max        4377 min
Histogram: 1 1 0 0 0 0 0 0 1 1
Neighs:         350484 ave      565956 max       60035 min
Histogram: 1 0 0 1 0 0 0 0 0 2

Total # of neighbors = 1401934
Ave neighs/atom = 479.29368
Ave special neighs/atom = 0.043076923
Neighbor list builds = 648
Dangerous builds = 0

  unfix swp
  thermo_style custom step temp pe

next temp
jump SELF minimize_temp

  variable ftemp equal v_temp

  # Electrostatic relaxation
  fix swp bFe atom/swap 1 1 ${rand} ${temp} ke no types 6 7
  fix swp bFe atom/swap 1 1 6520128 ${temp} ke no types 6 7
  fix swp bFe atom/swap 1 1 6520128 3985 ke no types 6 7
  thermo 100
  thermo_style custom step v_ftemp pe f_swp[1] f_swp[2]
  run ${nsteps}
  run 324
WARNING: No fixes with time integration, atoms won't move (../verlet.cpp:60)
PPPM initialization ...
  using 12-bit tables for long-range coulomb (../kspace.cpp:340)
  G vector (1/distance) = 0.29588697
  grid = 45 45 200
  stencil order = 5
  estimated absolute RMS force accuracy = 0.00034195275
  estimated relative force accuracy = 1.0297805e-06
  using double precision KISS FFT
  3d grid and FFT values/proc = 446148 301725
  generated 45 of 45 mixed pair_coeff terms from arithmetic mixing rule
Per MPI rank memory allocation (min/avg/max) = 21.22 | 29.56 | 51.95 Mbytes
Step v_ftemp PotEng f_swp[1] f_swp[2] 
    7776         3985   -539612.88            0            0 
    7800         3985   -539623.39           24            5 
    7900         3985   -539632.96          124           31 
    8000         3985   -539620.42          224           55 
    8100         3985   -539583.49          324           83 
Loop time of 71.784 on 4 procs for 324 steps with 2925 atoms

Performance: 0.195 ns/day, 123.086 hours/ns, 4.514 timesteps/s
92.1% CPU use with 4 MPI tasks x no OpenMP threads

MPI task timing breakdown:
Section |  min time  |  avg time  |  max time  |%varavg| %total
---------------------------------------------------------------
Pair    | 0.29132    | 1.5949     | 2.5416     |  74.5 |  2.22
Bond    | 0.00051568 | 0.0010317  | 0.0024588  |   2.6 |  0.00
Kspace  | 17.807     | 18.751     | 20.055     |  21.7 | 26.12
Neigh   | 3.9435     | 3.9515     | 3.9643     |   0.4 |  5.50
Comm    | 0.13531    | 0.14857    | 0.16236    |   2.6 |  0.21
Output  | 8.86e-05   | 0.00020919 | 0.00045985 |   0.0 |  0.00
Modify  | 47.326     | 47.33      | 47.334     |   0.1 | 65.93
Other   |            | 0.007306   |            |       |  0.01

Nlocal:         731.25 ave        1134 max         279 min
Histogram: 1 0 1 0 0 0 0 0 1 1
Nghost:        6891.25 ave        9527 max        4377 min
Histogram: 1 1 0 0 0 0 0 0 1 1
Neighs:         350484 ave      565956 max       60035 min
Histogram: 1 0 0 1 0 0 0 0 0 2

Total # of neighbors = 1401934
Ave neighs/atom = 479.29368
Ave special neighs/atom = 0.043076923
Neighbor list builds = 648
Dangerous builds = 0

  unfix swp
  thermo_style custom step temp pe

next temp
jump SELF minimize_temp

  variable ftemp equal v_temp

  # Electrostatic relaxation
  fix swp bFe atom/swap 1 1 ${rand} ${temp} ke no types 6 7
  fix swp bFe atom/swap 1 1 4419602 ${temp} ke no types 6 7
  fix swp bFe atom/swap 1 1 4419602 3586 ke no types 6 7
  thermo 100
  thermo_style custom step v_ftemp pe f_swp[1] f_swp[2]
  run ${nsteps}
  run 324
WARNING: No fixes with time integration, atoms won't move (../verlet.cpp:60)
PPPM initialization ...
  using 12-bit tables for long-range coulomb (../kspace.cpp:340)
  G vector (1/distance) = 0.29588697
  grid = 45 45 200
  stencil order = 5
  estimated absolute RMS force accuracy = 0.00034195275
  estimated relative force accuracy = 1.0297805e-06
  using double precision KISS FFT
  3d grid and FFT values/proc = 446148 301725
  generated 45 of 45 mixed pair_coeff terms from arithmetic mixing rule
Per MPI rank memory allocation (min/avg/max) = 21.22 | 29.56 | 51.95 Mbytes
Step v_ftemp PotEng f_swp[1] f_swp[2] 
    8100         3586   -539583.49            0            0 
    8200         3586   -539608.44          100           29 
    8300         3586   -539631.11          200           60 
    8400         3586   -539595.87          300           83 
    8424         3586   -539597.92          324           92 
Loop time of 70.4352 on 4 procs for 324 steps with 2925 atoms

Performance: 0.199 ns/day, 120.774 hours/ns, 4.600 timesteps/s
93.2% CPU use with 4 MPI tasks x no OpenMP threads

MPI task timing breakdown:
Section |  min time  |  avg time  |  max time  |%varavg| %total
---------------------------------------------------------------
Pair    | 0.28956    | 1.5839     | 2.548      |  74.4 |  2.25
Bond    | 0.00047428 | 0.00096447 | 0.0021748  |   0.0 |  0.00
Kspace  | 17.594     | 18.559     | 19.854     |  21.7 | 26.35
Neigh   | 3.8281     | 3.8365     | 3.8496     |   0.4 |  5.45
Comm    | 0.11648    | 0.13211    | 0.1436     |   2.8 |  0.19
Output  | 8.3571e-05 | 0.00022184 | 0.00054437 |   0.0 |  0.00
Modify  | 46.312     | 46.316     | 46.32      |   0.0 | 65.76
Other   |            | 0.006595   |            |       |  0.01

Nlocal:         731.25 ave        1134 max         279 min
Histogram: 1 0 1 0 0 0 0 0 1 1
Nghost:        6891.25 ave        9527 max        4377 min
Histogram: 1 1 0 0 0 0 0 0 1 1
Neighs:         350484 ave      565956 max       60035 min
Histogram: 1 0 0 1 0 0 0 0 0 2

Total # of neighbors = 1401934
Ave neighs/atom = 479.29368
Ave special neighs/atom = 0.043076923
Neighbor list builds = 648
Dangerous builds = 0

  unfix swp
  thermo_style custom step temp pe

next temp
jump SELF minimize_temp

  variable ftemp equal v_temp

  # Electrostatic relaxation
  fix swp bFe atom/swap 1 1 ${rand} ${temp} ke no types 6 7
  fix swp bFe atom/swap 1 1 2199081 ${temp} ke no types 6 7
  fix swp bFe atom/swap 1 1 2199081 3227 ke no types 6 7
  thermo 100
  thermo_style custom step v_ftemp pe f_swp[1] f_swp[2]
  run ${nsteps}
  run 324
WARNING: No fixes with time integration, atoms won't move (../verlet.cpp:60)
PPPM initialization ...
  using 12-bit tables for long-range coulomb (../kspace.cpp:340)
  G vector (1/distance) = 0.29588697
  grid = 45 45 200
  stencil order = 5
  estimated absolute RMS force accuracy = 0.00034195275
  estimated relative force accuracy = 1.0297805e-06
  using double precision KISS FFT
  3d grid and FFT values/proc = 446148 301725
  generated 45 of 45 mixed pair_coeff terms from arithmetic mixing rule
Per MPI rank memory allocation (min/avg/max) = 21.22 | 29.56 | 51.95 Mbytes
Step v_ftemp PotEng f_swp[1] f_swp[2] 
    8424         3227   -539597.92            0            0 
    8500         3227   -539630.42           76           14 
    8600         3227   -539594.75          176           46 
    8700         3227   -539629.81          276           67 
    8748         3227    -539616.6          324           74 
Loop time of 71.2589 on 4 procs for 324 steps with 2925 atoms

Performance: 0.196 ns/day, 122.186 hours/ns, 4.547 timesteps/s
91.3% CPU use with 4 MPI tasks x no OpenMP threads

MPI task timing breakdown:
Section |  min time  |  avg time  |  max time  |%varavg| %total
---------------------------------------------------------------
Pair    | 0.30509    | 1.6668     | 2.6236     |  75.6 |  2.34
Bond    | 0.00057504 | 0.0012432  | 0.0027956  |   2.6 |  0.00
Kspace  | 17.426     | 18.387     | 19.777     |  23.1 | 25.80
Neigh   | 4.0602     | 4.0689     | 4.0822     |   0.4 |  5.71
Comm    | 0.19948    | 0.22196    | 0.24613    |   4.4 |  0.31
Output  | 7.7267e-05 | 0.0001558  | 0.00030034 |   0.0 |  0.00
Modify  | 46.889     | 46.905     | 46.927     |   0.2 | 65.82
Other   |            | 0.007581   |            |       |  0.01

Nlocal:         731.25 ave        1134 max         279 min
Histogram: 1 0 1 0 0 0 0 0 1 1
Nghost:        6891.25 ave        9527 max        4377 min
Histogram: 1 1 0 0 0 0 0 0 1 1
Neighs:         350484 ave      565956 max       60035 min
Histogram: 1 0 0 1 0 0 0 0 0 2

Total # of neighbors = 1401934
Ave neighs/atom = 479.29368
Ave special neighs/atom = 0.043076923
Neighbor list builds = 648
Dangerous builds = 0

  unfix swp
  thermo_style custom step temp pe

next temp
jump SELF minimize_temp

  variable ftemp equal v_temp

  # Electrostatic relaxation
  fix swp bFe atom/swap 1 1 ${rand} ${temp} ke no types 6 7
  fix swp bFe atom/swap 1 1 6067438 ${temp} ke no types 6 7
  fix swp bFe atom/swap 1 1 6067438 2904 ke no types 6 7
  thermo 100
  thermo_style custom step v_ftemp pe f_swp[1] f_swp[2]
  run ${nsteps}
  run 324
WARNING: No fixes with time integration, atoms won't move (../verlet.cpp:60)
PPPM initialization ...
  using 12-bit tables for long-range coulomb (../kspace.cpp:340)
  G vector (1/distance) = 0.29588697
  grid = 45 45 200
  stencil order = 5
  estimated absolute RMS force accuracy = 0.00034195275
  estimated relative force accuracy = 1.0297805e-06
  using double precision KISS FFT
  3d grid and FFT values/proc = 446148 301725
  generated 45 of 45 mixed pair_coeff terms from arithmetic mixing rule
Per MPI rank memory allocation (min/avg/max) = 21.22 | 29.56 | 51.95 Mbytes
Step v_ftemp PotEng f_swp[1] f_swp[2] 
    8748         2904    -539616.6            0            0 
    8800         2904    -539631.5           52           12 
    8900         2904   -539635.23          152           26 
    9000         2904   -539618.64          252           49 
    9072         2904   -539613.84          324           58 
Loop time of 69.9143 on 4 procs for 324 steps with 2925 atoms

Performance: 0.200 ns/day, 119.881 hours/ns, 4.634 timesteps/s
92.8% CPU use with 4 MPI tasks x no OpenMP threads

MPI task timing breakdown:
Section |  min time  |  avg time  |  max time  |%varavg| %total
---------------------------------------------------------------
Pair    | 0.29572    | 1.5914     | 2.529      |  73.6 |  2.28
Bond    | 0.00053623 | 0.0010389  | 0.0024862  |   2.6 |  0.00
Kspace  | 16.989     | 17.945     | 19.232     |  22.0 | 25.67
Neigh   | 3.8693     | 3.8779     | 3.8913     |   0.4 |  5.55
Comm    | 0.14311    | 0.17781    | 0.20313    |   5.3 |  0.25
Output  | 0.00013717 | 0.000331   | 0.00075398 |   0.0 |  0.00
Modify  | 46.297     | 46.313     | 46.325     |   0.2 | 66.24
Other   |            | 0.007817   |            |       |  0.01

Nlocal:         731.25 ave        1134 max         279 min
Histogram: 1 0 1 0 0 0 0 0 1 1
Nghost:        6891.25 ave        9527 max        4377 min
Histogram: 1 1 0 0 0 0 0 0 1 1
Neighs:         350484 ave      565956 max       60035 min
Histogram: 1 0 0 1 0 0 0 0 0 2

Total # of neighbors = 1401934
Ave neighs/atom = 479.29368
Ave special neighs/atom = 0.043076923
Neighbor list builds = 648
Dangerous builds = 0

  unfix swp
  thermo_style custom step temp pe

next temp
jump SELF minimize_temp

  variable ftemp equal v_temp

  # Electrostatic relaxation
  fix swp bFe atom/swap 1 1 ${rand} ${temp} ke no types 6 7
  fix swp bFe atom/swap 1 1 3316115 ${temp} ke no types 6 7
  fix swp bFe atom/swap 1 1 3316115 2613 ke no types 6 7
  thermo 100
  thermo_style custom step v_ftemp pe f_swp[1] f_swp[2]
  run ${nsteps}
  run 324
WARNING: No fixes with time integration, atoms won't move (../verlet.cpp:60)
PPPM initialization ...
  using 12-bit tables for long-range coulomb (../kspace.cpp:340)
  G vector (1/distance) = 0.29588697
  grid = 45 45 200
  stencil order = 5
  estimated absolute RMS force accuracy = 0.00034195275
  estimated relative force accuracy = 1.0297805e-06
  using double precision KISS FFT
  3d grid and FFT values/proc = 446148 301725
  generated 45 of 45 mixed pair_coeff terms from arithmetic mixing rule
Per MPI rank memory allocation (min/avg/max) = 21.22 | 29.56 | 51.95 Mbytes
Step v_ftemp PotEng f_swp[1] f_swp[2] 
    9072         2613   -539613.84            0            0 
    9100         2613    -539631.3           28            8 
    9200         2613   -539613.15          128           25 
    9300         2613   -539629.36          228           36 
    9396         2613   -539618.86          324           55 
Loop time of 77.2421 on 4 procs for 324 steps with 2925 atoms

Performance: 0.181 ns/day, 132.445 hours/ns, 4.195 timesteps/s
89.5% CPU use with 4 MPI tasks x no OpenMP threads

MPI task timing breakdown:
Section |  min time  |  avg time  |  max time  |%varavg| %total
---------------------------------------------------------------
Pair    | 0.29902    | 1.7037     | 2.763      |  79.2 |  2.21
Bond    | 0.00058317 | 0.0011874  | 0.0028491  |   2.8 |  0.00
Kspace  | 18.819     | 19.878     | 21.282     |  23.2 | 25.74
Neigh   | 4.3936     | 4.4018     | 4.409      |   0.3 |  5.70
Comm    | 0.27263    | 0.28818    | 0.3055     |   2.4 |  0.37
Output  | 0.00010338 | 0.00023361 | 0.00051074 |   0.0 |  0.00
Modify  | 50.95      | 50.962     | 50.974     |   0.1 | 65.98
Other   |            | 0.006944   |            |       |  0.01

Nlocal:         731.25 ave        1134 max         279 min
[...]
Neigh   | 3.8186     | 3.8269     | 3.841      |   0.4 |  5.60
Comm    | 0.13103    | 0.1483     | 0.15936    |   2.9 |  0.22
Output  | 7.7677e-05 | 0.00022963 | 0.00059666 |   0.0 |  0.00
Modify  | 44.861     | 44.865     | 44.869     |   0.1 | 65.61
Other   |            | 0.006448   |            |       |  0.01

Nlocal:         731.25 ave        1134 max         279 min
Histogram: 1 0 1 0 0 0 0 0 1 1
Nghost:        6891.25 ave        9527 max        4377 min
Histogram: 1 1 0 0 0 0 0 0 1 1
Neighs:         350484 ave      565956 max       60035 min
Histogram: 1 0 0 1 0 0 0 0 0 2

Total # of neighbors = 1401934
Ave neighs/atom = 479.29368
Ave special neighs/atom = 0.043076923
Neighbor list builds = 648
Dangerous builds = 0

  unfix swp
  thermo_style custom step temp pe

next temp
jump SELF minimize_temp

  variable ftemp equal v_temp

  # Electrostatic relaxation
  fix swp bFe atom/swap 1 1 ${rand} ${temp} ke no types 6 7
  fix swp bFe atom/swap 1 1 7973751 ${temp} ke no types 6 7
  fix swp bFe atom/swap 1 1 7973751 6 ke no types 6 7
  thermo 100
  thermo_style custom step v_ftemp pe f_swp[1] f_swp[2]
  run ${nsteps}
  run 324
WARNING: No fixes with time integration, atoms won't move (../verlet.cpp:60)
PPPM initialization ...
  using 12-bit tables for long-range coulomb (../kspace.cpp:340)
  G vector (1/distance) = 0.29588697
  grid = 45 45 200
  stencil order = 5
  estimated absolute RMS force accuracy = 0.00034195275
  estimated relative force accuracy = 1.0297805e-06
  using double precision KISS FFT
  3d grid and FFT values/proc = 446148 301725
  generated 45 of 45 mixed pair_coeff terms from arithmetic mixing rule
Per MPI rank memory allocation (min/avg/max) = 21.22 | 29.56 | 51.95 Mbytes
Step v_ftemp PotEng f_swp[1] f_swp[2] 
   26244            6   -539649.15            0            0 
   26300            6   -539649.15           56            0 
   26400            6   -539649.15          156            0 
   26500            6   -539649.15          256            0 
   26568            6   -539649.15          324            0 
Loop time of 67.6241 on 4 procs for 324 steps with 2925 atoms

Performance: 0.207 ns/day, 115.954 hours/ns, 4.791 timesteps/s
94.1% CPU use with 4 MPI tasks x no OpenMP threads

MPI task timing breakdown:
Section |  min time  |  avg time  |  max time  |%varavg| %total
---------------------------------------------------------------
Pair    | 0.28984    | 1.6005     | 2.5608     |  74.5 |  2.37
Bond    | 0.00053199 | 0.0010552  | 0.0024033  |   2.4 |  0.00
Kspace  | 16.353     | 17.315     | 18.625     |  22.7 | 25.60
Neigh   | 3.7932     | 3.801      | 3.8142     |   0.4 |  5.62
Comm    | 0.12591    | 0.14225    | 0.15403    |   2.9 |  0.21
Output  | 8.6753e-05 | 0.00024131 | 0.00060273 |   0.0 |  0.00
Modify  | 44.754     | 44.758     | 44.762     |   0.1 | 66.19
Other   |            | 0.006515   |            |       |  0.01

Nlocal:         731.25 ave        1134 max         279 min
Histogram: 1 0 1 0 0 0 0 0 1 1
Nghost:        6891.25 ave        9527 max        4377 min
Histogram: 1 1 0 0 0 0 0 0 1 1
Neighs:         350484 ave      565956 max       60035 min
Histogram: 1 0 0 1 0 0 0 0 0 2

Total # of neighbors = 1401934
Ave neighs/atom = 479.29368
Ave special neighs/atom = 0.043076923
Neighbor list builds = 648
Dangerous builds = 0

  unfix swp
  thermo_style custom step temp pe

next temp
jump SELF minimize_temp

  variable ftemp equal v_temp

  # Electrostatic relaxation
  fix swp bFe atom/swap 1 1 ${rand} ${temp} ke no types 6 7
  fix swp bFe atom/swap 1 1 8822405 ${temp} ke no types 6 7
  fix swp bFe atom/swap 1 1 8822405 5 ke no types 6 7
  thermo 100
  thermo_style custom step v_ftemp pe f_swp[1] f_swp[2]
  run ${nsteps}
  run 324
WARNING: No fixes with time integration, atoms won't move (../verlet.cpp:60)
PPPM initialization ...
  using 12-bit tables for long-range coulomb (../kspace.cpp:340)
  G vector (1/distance) = 0.29588697
  grid = 45 45 200
  stencil order = 5
  estimated absolute RMS force accuracy = 0.00034195275
  estimated relative force accuracy = 1.0297805e-06
  using double precision KISS FFT
  3d grid and FFT values/proc = 446148 301725
  generated 45 of 45 mixed pair_coeff terms from arithmetic mixing rule
Per MPI rank memory allocation (min/avg/max) = 21.22 | 29.56 | 51.95 Mbytes
Step v_ftemp PotEng f_swp[1] f_swp[2] 
   26568            5   -539649.15            0            0 
   26600            5   -539649.15           32            0 
   26700            5   -539649.15          132            0 
   26800            5   -539649.15          232            0 
   26892            5   -539649.15          324            0 
Loop time of 68.4952 on 4 procs for 324 steps with 2925 atoms

Performance: 0.204 ns/day, 117.447 hours/ns, 4.730 timesteps/s
93.9% CPU use with 4 MPI tasks x no OpenMP threads

MPI task timing breakdown:
Section |  min time  |  avg time  |  max time  |%varavg| %total
---------------------------------------------------------------
Pair    | 0.28841    | 1.5632     | 2.5136     |  73.7 |  2.28
Bond    | 0.00043762 | 0.00091651 | 0.0022066  |   0.0 |  0.00
Kspace  | 16.795     | 17.747     | 19.022     |  21.9 | 25.91
Neigh   | 3.7508     | 3.7585     | 3.7715     |   0.4 |  5.49
Comm    | 0.12648    | 0.14274    | 0.15377    |   2.8 |  0.21
Output  | 7.8005e-05 | 0.00023036 | 0.00059809 |   0.0 |  0.00
Modify  | 45.272     | 45.276     | 45.28      |   0.1 | 66.10
Other   |            | 0.006947   |            |       |  0.01

Nlocal:         731.25 ave        1134 max         279 min
Histogram: 1 0 1 0 0 0 0 0 1 1
Nghost:        6891.25 ave        9527 max        4377 min
Histogram: 1 1 0 0 0 0 0 0 1 1
Neighs:         350484 ave      565956 max       60035 min
Histogram: 1 0 0 1 0 0 0 0 0 2

Total # of neighbors = 1401934
Ave neighs/atom = 479.29368
Ave special neighs/atom = 0.043076923
Neighbor list builds = 648
Dangerous builds = 0

  unfix swp
  thermo_style custom step temp pe

next temp
jump SELF minimize_temp

  variable ftemp equal v_temp

  # Electrostatic relaxation
  fix swp bFe atom/swap 1 1 ${rand} ${temp} ke no types 6 7
  fix swp bFe atom/swap 1 1 1866513 ${temp} ke no types 6 7
  fix swp bFe atom/swap 1 1 1866513 4 ke no types 6 7
  thermo 100
  thermo_style custom step v_ftemp pe f_swp[1] f_swp[2]
  run ${nsteps}
  run 324
WARNING: No fixes with time integration, atoms won't move (../verlet.cpp:60)
PPPM initialization ...
  using 12-bit tables for long-range coulomb (../kspace.cpp:340)
  G vector (1/distance) = 0.29588697
  grid = 45 45 200
  stencil order = 5
  estimated absolute RMS force accuracy = 0.00034195275
  estimated relative force accuracy = 1.0297805e-06
  using double precision KISS FFT
  3d grid and FFT values/proc = 446148 301725
  generated 45 of 45 mixed pair_coeff terms from arithmetic mixing rule
Per MPI rank memory allocation (min/avg/max) = 21.22 | 29.56 | 51.95 Mbytes
Step v_ftemp PotEng f_swp[1] f_swp[2] 
   26892            4   -539649.15            0            0 
   26900            4   -539649.15            8            0 
   27000            4   -539649.15          108            0 
   27100            4   -539649.15          208            0 
   27200            4   -539649.15          308            0 
   27216            4   -539649.15          324            0 
Loop time of 69.1003 on 4 procs for 324 steps with 2925 atoms

Performance: 0.203 ns/day, 118.485 hours/ns, 4.689 timesteps/s
93.2% CPU use with 4 MPI tasks x no OpenMP threads

MPI task timing breakdown:
Section |  min time  |  avg time  |  max time  |%varavg| %total
---------------------------------------------------------------
Pair    | 0.29479    | 1.5986     | 2.5865     |  74.8 |  2.31
Bond    | 0.00058402 | 0.001088   | 0.0024658  |   2.4 |  0.00
Kspace  | 16.996     | 17.983     | 19.29      |  22.4 | 26.02
Neigh   | 3.9886     | 3.9972     | 4.0152     |   0.5 |  5.78
Comm    | 0.13791    | 0.16324    | 0.18012    |   3.9 |  0.24
Output  | 0.0001021  | 0.00024354 | 0.00055188 |   0.0 |  0.00
Modify  | 45.347     | 45.351     | 45.355     |   0.1 | 65.63
Other   |            | 0.006378   |            |       |  0.01

Nlocal:         731.25 ave        1134 max         279 min
Histogram: 1 0 1 0 0 0 0 0 1 1
Nghost:        6891.25 ave        9527 max        4377 min
Histogram: 1 1 0 0 0 0 0 0 1 1
Neighs:         350484 ave      565956 max       60035 min
Histogram: 1 0 0 1 0 0 0 0 0 2

Total # of neighbors = 1401934
Ave neighs/atom = 479.29368
Ave special neighs/atom = 0.043076923
Neighbor list builds = 648
Dangerous builds = 0

  unfix swp
  thermo_style custom step temp pe

next temp
jump SELF minimize_temp

  variable ftemp equal v_temp

  # Electrostatic relaxation
  fix swp bFe atom/swap 1 1 ${rand} ${temp} ke no types 6 7
  fix swp bFe atom/swap 1 1 2979469 ${temp} ke no types 6 7
  fix swp bFe atom/swap 1 1 2979469 3 ke no types 6 7
  thermo 100
  thermo_style custom step v_ftemp pe f_swp[1] f_swp[2]
  run ${nsteps}
  run 324
WARNING: No fixes with time integration, atoms won't move (../verlet.cpp:60)
PPPM initialization ...
  using 12-bit tables for long-range coulomb (../kspace.cpp:340)
  G vector (1/distance) = 0.29588697
  grid = 45 45 200
  stencil order = 5
  estimated absolute RMS force accuracy = 0.00034195275
  estimated relative force accuracy = 1.0297805e-06
  using double precision KISS FFT
  3d grid and FFT values/proc = 446148 301725
  generated 45 of 45 mixed pair_coeff terms from arithmetic mixing rule
Per MPI rank memory allocation (min/avg/max) = 21.22 | 29.56 | 51.95 Mbytes
Step v_ftemp PotEng f_swp[1] f_swp[2] 
   27216            3   -539649.15            0            0 
   27300            3   -539649.15           84            0 
   27400            3   -539649.15          184            0 
   27500            3   -539649.15          284            0 
   27540            3   -539649.15          324            0 
Loop time of 69.2721 on 4 procs for 324 steps with 2925 atoms

Performance: 0.202 ns/day, 118.779 hours/ns, 4.677 timesteps/s
93.5% CPU use with 4 MPI tasks x no OpenMP threads

MPI task timing breakdown:
Section |  min time  |  avg time  |  max time  |%varavg| %total
---------------------------------------------------------------
Pair    | 0.28768    | 1.5647     | 2.4906     |  73.6 |  2.26
Bond    | 0.00036582 | 0.00088333 | 0.0021454  |   0.0 |  0.00
Kspace  | 17.263     | 18.19      | 19.467     |  21.6 | 26.26
Neigh   | 3.8391     | 3.8478     | 3.8628     |   0.5 |  5.55
Comm    | 0.13564    | 0.15395    | 0.16576    |   3.0 |  0.22
Output  | 9.8363e-05 | 0.0002175  | 0.00048077 |   0.0 |  0.00
Modify  | 45.504     | 45.508     | 45.512     |   0.1 | 65.69
Other   |            | 0.006713   |            |       |  0.01

Nlocal:         731.25 ave        1134 max         279 min
Histogram: 1 0 1 0 0 0 0 0 1 1
Nghost:        6891.25 ave        9527 max        4377 min
Histogram: 1 1 0 0 0 0 0 0 1 1
Neighs:         350484 ave      565956 max       60035 min
Histogram: 1 0 0 1 0 0 0 0 0 2

Total # of neighbors = 1401934
Ave neighs/atom = 479.29368
Ave special neighs/atom = 0.043076923
Neighbor list builds = 648
Dangerous builds = 0

  unfix swp
  thermo_style custom step temp pe

next temp
jump SELF minimize_temp

  variable ftemp equal v_temp

  # Electrostatic relaxation
  fix swp bFe atom/swap 1 1 ${rand} ${temp} ke no types 6 7
  fix swp bFe atom/swap 1 1 7974133 ${temp} ke no types 6 7
  fix swp bFe atom/swap 1 1 7974133 2 ke no types 6 7
  thermo 100
  thermo_style custom step v_ftemp pe f_swp[1] f_swp[2]
  run ${nsteps}
  run 324
WARNING: No fixes with time integration, atoms won't move (../verlet.cpp:60)
PPPM initialization ...
  using 12-bit tables for long-range coulomb (../kspace.cpp:340)
  G vector (1/distance) = 0.29588697
  grid = 45 45 200
  stencil order = 5
  estimated absolute RMS force accuracy = 0.00034195275
  estimated relative force accuracy = 1.0297805e-06
  using double precision KISS FFT
  3d grid and FFT values/proc = 446148 301725
  generated 45 of 45 mixed pair_coeff terms from arithmetic mixing rule
Per MPI rank memory allocation (min/avg/max) = 21.22 | 29.56 | 51.95 Mbytes
Step v_ftemp PotEng f_swp[1] f_swp[2] 
   27540            2   -539649.15            0            0 
   27600            2   -539649.15           60            0 
   27700            2   -539649.15          160            0 
   27800            2   -539649.15          260            0 
   27864            2   -539649.15          324            0 
Loop time of 68.8806 on 4 procs for 324 steps with 2925 atoms

Performance: 0.203 ns/day, 118.108 hours/ns, 4.704 timesteps/s
92.8% CPU use with 4 MPI tasks x no OpenMP threads

MPI task timing breakdown:
Section |  min time  |  avg time  |  max time  |%varavg| %total
---------------------------------------------------------------
Pair    | 0.31176    | 1.6235     | 2.5813     |  74.5 |  2.36
Bond    | 0.0005762  | 0.0014286  | 0.003786   |   3.6 |  0.00
Kspace  | 16.85      | 17.808     | 19.121     |  22.5 | 25.85
Neigh   | 3.8996     | 3.907      | 3.9207     |   0.4 |  5.67
Comm    | 0.12772    | 0.14335    | 0.15659    |   2.8 |  0.21
Output  | 8.4845e-05 | 0.00021955 | 0.00053645 |   0.0 |  0.00
Modify  | 45.385     | 45.39      | 45.394     |   0.1 | 65.90
Other   |            | 0.007591   |            |       |  0.01

Nlocal:         731.25 ave        1134 max         279 min
Histogram: 1 0 1 0 0 0 0 0 1 1
Nghost:        6891.25 ave        9527 max        4377 min
Histogram: 1 1 0 0 0 0 0 0 1 1
Neighs:         350484 ave      565956 max       60035 min
Histogram: 1 0 0 1 0 0 0 0 0 2

Total # of neighbors = 1401934
Ave neighs/atom = 479.29368
Ave special neighs/atom = 0.043076923
Neighbor list builds = 648
Dangerous builds = 0

  unfix swp
  thermo_style custom step temp pe

next temp
jump SELF minimize_temp

  variable ftemp equal v_temp

  # Electrostatic relaxation
  fix swp bFe atom/swap 1 1 ${rand} ${temp} ke no types 6 7
  fix swp bFe atom/swap 1 1 9540448 ${temp} ke no types 6 7
  fix swp bFe atom/swap 1 1 9540448 1 ke no types 6 7
  thermo 100
  thermo_style custom step v_ftemp pe f_swp[1] f_swp[2]
  run ${nsteps}
  run 324
WARNING: No fixes with time integration, atoms won't move (../verlet.cpp:60)
PPPM initialization ...
  using 12-bit tables for long-range coulomb (../kspace.cpp:340)
  G vector (1/distance) = 0.29588697
  grid = 45 45 200
  stencil order = 5
  estimated absolute RMS force accuracy = 0.00034195275
  estimated relative force accuracy = 1.0297805e-06
  using double precision KISS FFT
  3d grid and FFT values/proc = 446148 301725
  generated 45 of 45 mixed pair_coeff terms from arithmetic mixing rule
Per MPI rank memory allocation (min/avg/max) = 21.22 | 29.56 | 51.95 Mbytes
Step v_ftemp PotEng f_swp[1] f_swp[2] 
   27864            1   -539649.15            0            0 
   27900            1   -539649.15           36            0 
   28000            1   -539649.15          136            0 
   28100            1   -539649.15          236            0 
   28188            1   -539649.15          324            0 
Loop time of 63.7617 on 4 procs for 324 steps with 2925 atoms

Performance: 0.220 ns/day, 109.331 hours/ns, 5.081 timesteps/s
92.0% CPU use with 4 MPI tasks x no OpenMP threads

MPI task timing breakdown:
Section |  min time  |  avg time  |  max time  |%varavg| %total
---------------------------------------------------------------
Pair    | 0.30249    | 1.5653     | 2.4849     |  72.8 |  2.45
Bond    | 0.00048793 | 0.0010004  | 0.0024667  |   2.7 |  0.00
Kspace  | 15.413     | 16.333     | 17.595     |  22.5 | 25.62
Neigh   | 3.8458     | 3.8527     | 3.8664     |   0.4 |  6.04
Comm    | 0.17537    | 0.18484    | 0.19635    |   1.8 |  0.29
Output  | 6.9778e-05 | 0.00013058 | 0.00023847 |   0.0 |  0.00
Modify  | 41.809     | 41.818     | 41.829     |   0.1 | 65.58
Other   |            | 0.007107   |            |       |  0.01

Nlocal:         731.25 ave        1134 max         279 min
Histogram: 1 0 1 0 0 0 0 0 1 1
Nghost:        6891.25 ave        9527 max        4377 min
Histogram: 1 1 0 0 0 0 0 0 1 1
Neighs:         350484 ave      565956 max       60035 min
Histogram: 1 0 0 1 0 0 0 0 0 2

Total # of neighbors = 1401934
Ave neighs/atom = 479.29368
Ave special neighs/atom = 0.043076923
Neighbor list builds = 648
Dangerous builds = 0

  unfix swp
  thermo_style custom step temp pe

next temp
jump SELF minimize_temp

write_data 001-dbt_3x3_${layer}L_${type}_lqeq.data
write_data 001-dbt_3x3_21L_${type}_lqeq.data
write_data 001-dbt_3x3_21L_fa_int_half_qeq_lqeq.data
System init for write_data ...
PPPM initialization ...
  using 12-bit tables for long-range coulomb (../kspace.cpp:340)
  G vector (1/distance) = 0.29588697
  grid = 45 45 200
  stencil order = 5
  estimated absolute RMS force accuracy = 0.00034195275
  estimated relative force accuracy = 1.0297805e-06
  using double precision KISS FFT
  3d grid and FFT values/proc = 446148 301725
  generated 45 of 45 mixed pair_coeff terms from arithmetic mixing rule

# Full minimization
minimize 1.0e-6 1.0e-9 1000 10000
PPPM initialization ...
  using 12-bit tables for long-range coulomb (../kspace.cpp:340)
  G vector (1/distance) = 0.29588697
  grid = 45 45 200
  stencil order = 5
  estimated absolute RMS force accuracy = 0.00034195275
  estimated relative force accuracy = 1.0297805e-06
  using double precision KISS FFT
  3d grid and FFT values/proc = 446148 301725
  generated 45 of 45 mixed pair_coeff terms from arithmetic mixing rule
Per MPI rank memory allocation (min/avg/max) = 22.34 | 30.69 | 53.08 Mbytes
Step Temp PotEng 
   28188            0   -539649.15 
   28200            0   -548180.85 
   28223            0   -548225.12 
Loop time of 2.74168 on 4 procs for 35 steps with 2925 atoms

95.3% CPU use with 4 MPI tasks x no OpenMP threads

Minimization stats:
  Stopping criterion = energy tolerance
  Energy initial, next-to-last, final = 
     -539649.153803709  -548224.581614069   -548225.11584358
  Force two-norm initial, final = 3480.0576 34.650692
  Force max component initial, final = 116.03817 7.9724995
  Final line search alpha, max atom move = 0.0061749467 0.04922976
  Iterations, force evaluations = 35 69

MPI task timing breakdown:
Section |  min time  |  avg time  |  max time  |%varavg| %total
---------------------------------------------------------------
Pair    | 0.080697   | 0.43239    | 0.68966    |  38.8 | 15.77
Bond    | 6.396e-05  | 0.00018149 | 0.00051876 |   0.0 |  0.01
Kspace  | 2.0407     | 2.2981     | 2.6495     |  16.8 | 83.82
Neigh   | 0          | 0          | 0          |   0.0 |  0.00
Comm    | 0.0077174  | 0.008338   | 0.0089295  |   0.6 |  0.30
Output  | 1.488e-05  | 1.776e-05  | 2.6203e-05 |   0.0 |  0.00
Modify  | 0          | 0          | 0          |   0.0 |  0.00
Other   |            | 0.002684   |            |       |  0.10

Nlocal:         731.25 ave        1134 max         279 min
Histogram: 1 0 1 0 0 0 0 0 1 1
Nghost:        6891.25 ave        9527 max        4377 min
Histogram: 1 1 0 0 0 0 0 0 1 1
Neighs:         350484 ave      565956 max       60035 min
Histogram: 1 0 0 1 0 0 0 0 0 2

Total # of neighbors = 1401934
Ave neighs/atom = 479.29368
Ave special neighs/atom = 0.043076923
Neighbor list builds = 0
Dangerous builds = 0

write_data 001-dbt_3x3_${layer}L_${type}_lqeq_min.data
write_data 001-dbt_3x3_21L_${type}_lqeq_min.data
write_data 001-dbt_3x3_21L_fa_int_half_qeq_lqeq_min.data
System init for write_data ...
PPPM initialization ...
  using 12-bit tables for long-range coulomb (../kspace.cpp:340)
  G vector (1/distance) = 0.29588697
  grid = 45 45 200
  stencil order = 5
  estimated absolute RMS force accuracy = 0.00034195275
  estimated relative force accuracy = 1.0297805e-06
  using double precision KISS FFT
  3d grid and FFT values/proc = 446148 301725
  generated 45 of 45 mixed pair_coeff terms from arithmetic mixing rule
Total wall time: 1:41:03
