LAMMPS data file via write_data, version 17 Feb 2022, timestep = 84759

4356 atoms
10 atom types
72 bonds
6 bond types
108 angles
6 angle types
0 dihedrals
2 dihedral types
18 impropers
2 improper types

0 25.44 xlo xhi
0 25.44 ylo yhi
-64.778423 32.908 zlo zhi

Masses

1 12.011
2 1.008
3 15.9994
4 15.9994
5 1.008
6 55.845
7 55.845
8 15.9994
9 15.9994
10 1.008

Pair Coeffs # lj/cut/coul/long

1 0.0988 3.31521
2 0.0161 2.4473
3 0.1463 3.04812
4 0.093 3.24287
5 0.0047 0.537925
6 9.0298e-07 4.9062
7 9.0298e-07 4.9062
8 0.1554 3.16554
9 0.1554 3.16554
10 0 0

Bond Coeffs # harmonic

1 361.8 1.105
2 652.57 1.218
3 383.13 1.351
4 563.51 0.973
5 554.135 1
6 0 2.08

Angle Coeffs # harmonic

1 51.617 106.55
2 65.93 123.65
3 65.262 109.49
4 115.745 122.1
5 118.817 130.25
6 30 109.47

Dihedral Coeffs # fourier

1 1 2.3 2 180
2 2 2.3 2 180 1.9 1 0

Improper Coeffs # cvff

1 10.5 -1 2
2 10.5 -1 2

Atoms # full

71 0 7 1.575 3.2663554284608716 4.289710925130197 -52.34015627838182 0 0 0
78 0 6 1.05 6.6368430801356775 5.437518963065714 -53.708137534552264 0 0 0
3 0 6 1.05 25.395712168930764 3.100139441069505 -53.306009611742596 -1 0 0
74 0 6 1.05 4.3816711562051855 7.816870355021162 -53.72142773755349 0 0 0
7 0 6 1.05 2.1785355448359365 1.2757779820120596 -53.56089630632352 0 0 0
6 0 8 -1.05 1.9918730047339994 3.2525619492484052 -53.286032768165754 0 0 0
75 0 8 -1.05 4.622507426276686 5.508704940012105 -52.89837550126614 0 0 0
70 0 8 -1.05 2.4834499513782067 7.682973861299292 -53.07027086564201 0 0 0
4 0 8 -1.05 0.21974193135413628 1.1083174269273381 -52.838040698678974 0 0 0
73 0 8 -1.05 4.298766080189206 7.763804442696656 -50.72361384684553 0 0 0
19 0 8 -1.05 6.731923256284876 3.4460562106933494 -53.190349254495835 0 0 0
79 0 8 -1.05 6.549070596121545 5.197584052628766 -50.75678469458049 0 0 0
77 0 8 -1.05 6.358439357670833 7.457615276914418 -52.95411489920499 0 0 0
5 0 7 1.575 0.2876494582915475 1.5707984536216044 -50.901329324267245 0 0 0
76 0 7 1.575 5.489724666167347 6.5379489320890825 -51.522800180146454 0 0 0
11 0 6 1.05 4.357131344083552 1.2963814736291541 -51.386506309012134 0 0 0
68 0 6 1.05 2.1426772754331824 5.231775395400955 -49.29844157852819 0 0 0
63 0 6 1.05 24.60696732939112 6.9451796349091115 -49.67117151533462 -1 0 0
62 0 7 1.575 0.20955136160316779 5.4872226832813356 -51.88027963981754 0 0 0
12 0 7 1.575 4.382130176280254 3.5091550543184393 -48.99087810826162 0 0 0
17 0 6 1.05 6.473274956047194 1.2479222934166647 -49.10227476383591 0 0 0
18 0 7 1.575 6.461399338905093 3.3230535979616134 -51.29008453746919 0 0 0
69 0 7 1.575 2.2372413325202807 7.6379385984216155 -51.15514503097319 0 0 0
15 0 8 -1.05 6.4277831706215 1.3394820824888458 -51.09643358893892 0 0 0
64 0 8 -1.05 0.2784225185562041 5.78774299434859 -48.393785882944 0 0 0
65 0 8 -1.05 0.18609188369406063 7.443784724997789 -51.3133449325678 0 0 0
16 0 8 -1.05 6.2978503462553945 3.2324190381720803 -48.69297016266278 0 0 0
14 0 8 -1.05 4.399312213390304 3.325478100652406 -50.9499471358039 0 0 0
67 0 8 -1.05 2.350518523936319 7.399071540778919 -48.99281973321693 0 0 0
13 0 8 -1.05 4.326619158515841 1.4326119057683055 -48.491183612382976 0 0 0
66 0 8 -1.05 2.115709979147966 5.513513630810982 -51.264307251185265 0 0 0
8 0 8 -1.05 2.2080773282528305 1.0444178389353584 -50.72727794350588 0 0 0
10 0 8 -1.05 4.109696577418667 0.9890120010325233 -53.32291870499203 0 0 0
61 0 8 -1.05 24.84837435270784 5.032675642441631 -53.54999559562185 -1 0 0
2 0 8 -1.05 0.04743764201267412 3.5133802943982517 -51.1765380509847 0 0 0
20 0 7 1.575 7.6213589894633085 0.21861406136110592 -52.28583996999317 0 0 0
81 0 8 -1.05 8.54718026176367 5.311760839106572 -53.08198010600007 0 0 0
22 0 8 -1.05 8.47196118724586 3.3311208965470342 -51.04755085043129 0 0 0
91 0 7 1.575 11.709980935115501 4.561496424444526 -52.024016939656306 0 0 0
23 0 7 1.575 8.70875835796036 3.3826809454298683 -53.08724519525732 0 0 0
27 0 7 1.575 10.84818695561804 1.3528706774960426 -53.028444890067696 0 0 0
26 0 8 -1.05 10.689059300426761 3.2895844694818033 -53.00957534569904 0 0 0
90 0 8 -1.05 10.88382089823639 7.78214873755698 -53.02625676036665 0 0 0
24 0 8 -1.05 8.860292906295788 1.4060194991682124 -53.13363594450941 0 0 0
25 0 7 1.575 9.64571390271283 2.3658378063010055 -49.90815795368368 0 0 0
88 0 7 1.575 10.627124106236268 5.56080003247765 -48.778520014515514 0 0 0
83 0 7 1.575 8.408670786253154 7.644978339349929 -48.82731725350046 0 0 0
82 0 6 1.05 8.557280802107197 5.566098540104841 -51.08931339562971 0 0 0
89 0 6 1.05 10.586011341317093 7.617642078861986 -51.03428967761834 0 0 0
84 0 8 -1.05 8.633787821359613 5.659577407613212 -48.617729620321164 0 0 0
85 0 8 -1.05 8.451182878619658 7.666826889795634 -50.78709977408567 0 0 0
87 0 8 -1.05 10.512862983371138 7.565156135218708 -48.688164967157896 0 0 0
86 0 8 -1.05 10.601645930137462 5.526523450660685 -50.73649092652579 0 0 0
28 0 8 -1.05 10.753116648387051 1.2515059987210293 -50.99389959253578 0 0 0
98 0 7 1.575 14.953870874004858 5.416105042307607 -52.92138000609678 0 0 0
94 0 7 1.575 12.848294513794476 7.611309826651663 -52.948953377411854 0 0 0
95 0 8 -1.05 12.993826742153066 5.605888554802212 -52.96116704315507 0 0 0
93 0 8 -1.05 12.740961430074496 7.661070449137481 -50.92644868003629 0 0 0
39 0 8 -1.05 15.045100931284257 3.3560353448670956 -52.83369599430105 0 0 0
99 0 8 -1.05 15.02545144307905 5.525271604628946 -50.849747854778805 0 0 0
97 0 8 -1.05 14.847203119492475 7.425965847646393 -52.97618761647444 0 0 0
96 0 7 1.575 13.866179472724749 6.632898160813745 -49.808038670567015 0 0 0
31 0 6 1.05 12.776291493751435 1.3908843071784398 -50.91268513872762 0 0 0
32 0 7 1.575 12.747690276713179 3.492942653117639 -48.76465052402124 0 0 0
37 0 7 1.575 14.879824856623959 1.3846935418815818 -48.84956683426139 0 0 0
38 0 6 1.05 14.866868340778478 3.4802748891381805 -50.804036220678704 0 0 0
35 0 8 -1.05 14.845931059203158 1.4024310767055126 -50.811270786305755 0 0 0
36 0 8 -1.05 14.764127910493896 3.3787597931210698 -48.65459948921442 0 0 0
34 0 8 -1.05 12.767470543540835 3.4830261801582902 -50.72876096511403 0 0 0
33 0 8 -1.05 12.880243079457287 1.4565481734763666 -48.72209914388757 0 0 0
30 0 8 -1.05 12.994961583436313 1.2095694991587123 -52.97798042848769 0 0 0
40 0 7 1.575 15.015722405203457 1.3489809654877924 -52.8360009963362 0 0 0
60 0 7 1.575 0.05985200435751469 24.57726161173172 -52.986238611081454 1 -1 0
50 0 8 -1.05 21.279305670228222 1.1577004440478207 -53.6660121962038 0 0 0
48 0 8 -1.05 19.403368184955838 0.6171748111716879 -49.54351076348136 0 0 0
106 0 8 -1.05 19.07752273950655 5.600162017062922 -50.911712394302114 0 0 0
53 0 8 -1.05 21.529793057769073 1.8112060229707025 -47.846502645556164 0 0 0
107 0 8 -1.05 19.20955659598514 7.622966136712679 -48.44290366644674 0 0 0
54 0 8 -1.05 21.53102359830801 3.721937242521984 -50.747803430350224 0 0 0
56 0 8 -1.05 23.482772714241793 3.4522571663614228 -48.81673394519994 0 0 0
105 0 8 -1.05 17.170453675120775 7.593740695617575 -50.94201211650338 0 0 0
104 0 8 -1.05 17.126504256591836 5.7028350965353685 -48.844597754386285 0 0 0
55 0 8 -1.05 23.759006520703604 1.4349900376156481 -50.732110917090196 0 0 0
109 0 7 1.575 19.145137137859496 7.594293404167832 -51.26036902561588 0 0 0
58 0 7 1.575 23.48489713573263 3.500052987055833 -50.87079016815205 0 0 0
57 0 6 1.05 23.27230252279138 1.3577941549403334 -48.80600808418497 0 0 0
52 0 6 1.05 21.31985979992954 3.637964287068665 -48.78056224511436 0 0 0
102 0 7 1.575 17.038257542849006 5.551457395510213 -50.85072047302987 0 0 0
103 0 6 1.05 17.12264221181388 7.778352841396679 -48.84566878993926 0 0 0
108 0 6 1.05 19.166230508323867 5.571626803583162 -48.8447840476412 0 0 0
51 0 7 1.575 22.74874083664867 0.9794909811261628 -52.40790503699237 0 0 0
116 0 7 1.575 22.231569880515746 6.400372688562388 -51.67188831927048 0 0 0
45 0 7 1.575 18.32046436160544 2.2803621119021233 -49.958279601422724 0 0 0
117 0 8 -1.05 23.0253597181616 7.612398666335485 -52.907831458561674 0 0 0
119 0 8 -1.05 23.76391294938698 5.522590801092342 -50.903397569007 0 0 0
59 0 8 -1.05 23.32215921884026 2.8966401421171115 -52.825108047632426 0 0 0
113 0 8 -1.05 21.061944401475042 7.548261380848713 -50.6745983982327 0 0 0
44 0 8 -1.05 16.957603852057844 1.3406143148150154 -53.3242284901224 0 0 0
110 0 8 -1.05 19.437436769665624 7.863593233238774 -53.14476770469508 0 0 0
115 0 8 -1.05 21.354883987920882 5.288100411695581 -52.9796742982158 0 0 0
46 0 8 -1.05 19.05767315643412 2.652978883209653 -51.888859864925244 0 0 0
47 0 6 1.05 19.259711137439385 1.4047980209676298 -53.523117203921174 0 0 0
114 0 6 1.05 21.33592588528435 8.100000393989768 -53.907856424708555 0 0 0
43 0 6 1.05 17.10913197576688 3.2354545788803954 -52.63887432424593 0 0 0
118 0 6 1.05 22.95524947713211 4.526177531895709 -53.94650308066339 0 0 0
111 0 7 1.575 20.10873535384368 4.267253857631894 -51.91480127286113 0 0 0
42 0 8 -1.05 16.943121010799537 3.5391790048346077 -50.54800780150978 0 0 0
101 0 8 -1.05 16.921732413745403 5.24317754538008 -52.77784118365622 0 0 0
140 0 7 1.575 7.511772536519303 8.774594656661106 -52.15124632167402 0 0 0
128 0 8 -1.05 2.3427397925272304 9.600676545818366 -50.92436176114103 0 0 0
130 0 8 -1.05 4.308097987596701 9.649796320708878 -52.981556721971074 0 0 0
123 0 7 1.575 0.15282754157711992 11.918160748774254 -52.94092256003856 0 0 0
127 0 6 1.05 2.260954705038936 9.814575946132514 -53.15970759369882 0 0 0
126 0 8 -1.05 2.095355607573157 11.84065185468838 -52.90733661164604 0 0 0
124 0 8 -1.05 0.20775395169228075 9.953768631490862 -53.142020154251504 0 0 0
139 0 8 -1.05 6.676215328674941 12.088083003453784 -52.97596732262612 0 0 0
125 0 7 1.575 1.2386548491943605 10.758692822476675 -49.89108723623115 0 0 0
131 0 7 1.575 4.362605167146997 9.856233438691214 -51.08414655893528 0 0 0
132 0 7 1.575 4.305221699416627 11.852857774962528 -48.792955777258406 0 0 0
137 0 6 1.05 6.4875681462546915 9.813909081333497 -48.8854867258083 0 0 0
138 0 6 1.05 6.43249488616522 11.90020842962929 -50.985216108109796 0 0 0
135 0 8 -1.05 6.382704097223227 9.785407506699903 -50.91113982192267 0 0 0
136 0 8 -1.05 6.310296073586565 11.83195700517916 -48.67321941355762 0 0 0
134 0 8 -1.05 4.293703618455355 11.836563859653557 -50.76891093102226 0 0 0
133 0 8 -1.05 4.419381330561115 9.817459429319772 -48.881308425762036 0 0 0
122 0 8 -1.05 0.0673861651351667 11.90429547230895 -50.86739578498962 0 0 0
191 0 7 1.575 3.28211811460498 13.024306600560912 -52.04328732967836 0 0 0
198 0 7 1.575 6.492885620304931 14.05464504515155 -52.911731324086354 0 0 0
194 0 6 1.05 4.32284722925245 16.137481185944953 -53.333588157187194 0 0 0
195 0 8 -1.05 4.538114686581179 14.1299043277601 -52.919539450543084 0 0 0
190 0 8 -1.05 2.2666714906434375 16.344503801492902 -52.88320052686692 0 0 0
193 0 8 -1.05 4.191475443115453 16.350282273096532 -50.64054589841482 0 0 0
199 0 8 -1.05 6.550873702547005 13.992901468589384 -50.849073845848544 0 0 0
197 0 8 -1.05 6.405164562518937 16.011231109908042 -52.95678506218142 0 0 0
196 0 7 1.575 5.34498403761313 15.071434256290393 -49.857951304724395 0 0 0
188 0 6 1.05 2.2173949836170657 14.020619673376071 -48.80018734963509 0 0 0
183 0 7 1.575 0.0868110227586249 16.183064422565632 -48.814166142704345 0 0 0
182 0 6 1.05 0.17586860620752967 14.034313647897282 -50.966594521281365 0 0 0
189 0 7 1.575 2.235640959952351 16.168690941544693 -50.96889831011911 0 0 0
184 0 8 -1.05 0.1250154138756741 14.208197722349198 -48.73349043947561 0 0 0
185 0 8 -1.05 0.16187972863998895 16.27540813621413 -50.76690640612162 0 0 0
187 0 8 -1.05 2.067951932991955 16.172038854052154 -48.73918134311853 0 0 0
186 0 8 -1.05 2.2612535759219075 14.176919435539334 -50.81052947049537 0 0 0
181 0 8 -1.05 25.39843210582901 13.883238527689548 -52.955821113880646 -1 0 0
142 0 8 -1.05 8.622353014258218 11.975317435672961 -50.90873041018209 0 0 0
148 0 8 -1.05 10.756593448429008 9.743318933008725 -50.94216339725538 0 0 0
143 0 7 1.575 8.611350538063471 11.907524540220795 -52.95644284078207 0 0 0
147 0 7 1.575 10.727214691768111 9.745367384665748 -52.98808647523013 0 0 0
146 0 8 -1.05 10.59494322566066 11.73384434944295 -53.08726485687623 0 0 0
144 0 8 -1.05 8.75175493542479 9.916208874771504 -53.00943848502257 0 0 0
145 0 7 1.575 9.63683936402054 10.799306487024495 -49.82879710375341 0 0 0
201 0 8 -1.05 8.512849575068932 13.883573145855966 -52.936027657977625 0 0 0
211 0 7 1.575 11.783617213463877 12.90993751986693 -52.24559242844359 0 0 0
210 0 8 -1.05 11.128328254782442 16.267826471879715 -52.825887138583674 0 0 0
208 0 7 1.575 10.731899221736256 13.995660090204142 -48.77849107483035 0 0 0
203 0 6 1.05 8.58990917510866 16.13722721593739 -48.822326266421186 0 0 0
202 0 6 1.05 8.588137378200285 14.091417056261351 -50.94141093782052 0 0 0
209 0 7 1.575 10.776354276192878 16.248123480944148 -50.94046505806383 0 0 0
204 0 8 -1.05 8.764438522257146 14.053186528111189 -48.748540354386584 0 0 0
205 0 8 -1.05 8.799720906055862 16.192617725127214 -50.844504524220916 0 0 0
207 0 8 -1.05 10.746360593355673 15.992596222957408 -48.79308263634214 0 0 0
206 0 8 -1.05 11.138934640886275 14.17551746362977 -50.74185846089181 0 0 0
160 0 7 1.575 15.980459681351547 8.708557088459193 -52.130033033130616 0 0 0
150 0 8 -1.05 12.704349579485141 9.591418691035711 -52.9841626723692 0 0 0
159 0 8 -1.05 15.085609086959673 12.047736870235022 -52.89955006593022 0 0 0
151 0 6 1.05 12.861952317115046 9.741184804185565 -50.973937243986306 0 0 0
152 0 7 1.575 12.801714330076452 11.824626209385691 -48.79696166960871 0 0 0
157 0 6 1.05 14.984660058039376 9.798965759214045 -48.83609176341273 0 0 0
158 0 7 1.575 14.994802160954404 11.82513530497294 -50.98912974178851 0 0 0
155 0 8 -1.05 14.965625634612152 9.84006498300052 -50.88268678745747 0 0 0
156 0 8 -1.05 14.787545151010349 11.868570901235081 -48.83791828430402 0 0 0
154 0 8 -1.05 12.931851552392503 12.067534762740586 -50.809752649767454 0 0 0
153 0 8 -1.05 12.833824693827259 9.880475882213686 -48.778373042449836 0 0 0
218 0 6 1.05 15.042803731336162 14.06837888645079 -53.359559443659585 0 0 0
214 0 7 1.575 13.071717946390766 16.251601234531933 -52.985597725421314 0 0 0
215 0 8 -1.05 13.094697855775172 14.262112648210811 -52.63368826906502 0 0 0
213 0 8 -1.05 13.001645885401956 16.34273560530518 -50.82790273253655 0 0 0
219 0 8 -1.05 15.084970159443756 13.848225638008058 -50.59414547117521 0 0 0
217 0 8 -1.05 15.00817977459422 16.122168300787187 -53.01782675031069 0 0 0
216 0 7 1.575 13.240219516517623 14.445668193815042 -50.6428760663342 0 0 0
173 0 8 -1.05 21.436972390287824 9.7910965791664 -48.876249283278 0 0 0
174 0 8 -1.05 21.245269998169626 11.883714748439301 -50.81515204134158 0 0 0
176 0 8 -1.05 23.28628817688855 11.731274964926648 -48.7564188299717 0 0 0
175 0 8 -1.05 23.447119463760625 9.632872909092017 -50.851725712962626 0 0 0
178 0 6 1.05 23.394228969682963 11.843639219573118 -51.03156832586576 0 0 0
177 0 7 1.575 23.445635924400836 9.751514022274499 -48.90318497463833 0 0 0
172 0 7 1.575 21.28844218174403 11.814488133631896 -48.868492918957955 0 0 0
171 0 6 1.05 21.368839846321215 9.837336804039984 -51.163784473323545 0 0 0
165 0 7 1.575 18.164676372069557 10.79788351449756 -49.887748344901205 0 0 0
179 0 8 -1.05 23.624278351012702 12.030166229694204 -53.00322682867865 0 0 0
164 0 8 -1.05 17.173618976940674 9.87219197167584 -53.074330320726425 0 0 0
166 0 8 -1.05 18.990322279637066 11.774259369136297 -52.99439122493337 0 0 0
167 0 7 1.575 19.151536499707387 9.839085153641214 -53.03742631883273 0 0 0
163 0 7 1.575 17.039797692074828 11.86790731879256 -53.054547005089994 0 0 0
170 0 8 -1.05 21.079263058808532 9.892141755748066 -53.14307974493656 0 0 0
168 0 8 -1.05 19.167389545335443 9.586374313974401 -51.01249981066685 0 0 0
162 0 8 -1.05 17.002952708428204 11.889416575373836 -50.96978066810456 0 0 0
180 0 7 1.575 24.441061942330393 8.77922722749473 -52.31491068864824 0 0 0
226 0 8 -1.05 19.183184019742473 14.099603810376783 -50.908872944993796 0 0 0
227 0 8 -1.05 19.089996557110442 15.940317144755127 -48.79039238114343 0 0 0
225 0 8 -1.05 17.16611955482595 16.207367124124637 -50.76850560671973 0 0 0
224 0 8 -1.05 17.139742179478866 14.0232713052884 -48.45611736131226 0 0 0
229 0 7 1.575 19.225942748600765 16.133677178099745 -50.89475107041877 0 0 0
222 0 6 1.05 17.145467027878272 14.127264382032449 -51.298706732095425 0 0 0
223 0 7 1.575 17.126052921996273 16.038996299744944 -48.79516032879282 0 0 0
228 0 6 1.05 19.20573662660227 13.875849925752522 -48.9345076448397 0 0 0
236 0 7 1.575 22.36090004526294 15.056753793646342 -49.863572990116644 0 0 0
237 0 8 -1.05 23.2972546403814 15.990399696084896 -52.91560781445375 0 0 0
239 0 8 -1.05 23.500574666930074 13.942759527978348 -50.87235337349336 0 0 0
233 0 8 -1.05 21.217965633186726 16.359716411991684 -50.661116425865174 0 0 0
230 0 8 -1.05 19.274175709378607 16.196704714789988 -52.801749737424174 0 0 0
235 0 8 -1.05 21.48515448140079 14.059053274114847 -53.02965844226884 0 0 0
234 0 6 1.05 21.28194593984743 16.06644644251154 -53.266027086929846 0 0 0
238 0 7 1.575 23.439506675659956 14.00853736840601 -52.92931382017069 0 0 0
231 0 7 1.575 20.237291464814092 12.949370101570466 -52.153009196237605 0 0 0
221 0 8 -1.05 17.004828785684897 13.793281346945566 -53.239150650225994 0 0 0
260 0 7 1.575 7.632715100999788 17.178888980461966 -52.131991162102295 0 0 0
248 0 8 -1.05 2.2602871853271536 18.273903061621233 -50.98211969188439 0 0 0
250 0 8 -1.05 4.058082818963062 18.19054607097842 -53.30620146092284 0 0 0
311 0 7 1.575 3.345549646796963 21.359013612427816 -52.26062109548142 0 0 0
318 0 6 1.05 6.5523761259434306 22.421440863291686 -53.29450277800386 0 0 0
243 0 7 1.575 0.09101821495154973 20.45603023856322 -53.08629981142653 0 0 0
314 0 7 1.575 4.414158939422461 24.543336502523346 -53.212763908432386 0 0 0
247 0 7 1.575 2.147533312356389 18.287569863081885 -53.066096023355115 0 0 0
246 0 8 -1.05 2.0152532003733064 20.310604134070445 -53.10592131556611 0 0 0
315 0 8 -1.05 4.401846026141683 22.631593233373483 -53.17176865585013 0 0 0
310 0 8 -1.05 2.0944939495671875 24.648291284613677 -53.06038332573369 0 0 0
244 0 8 -1.05 0.17082587099667737 18.477643795377077 -52.9889761834727 0 0 0
313 0 8 -1.05 4.21775139438456 24.65801121264839 -51.12546911433062 0 0 0
259 0 8 -1.05 6.782630380813651 20.385232045164766 -53.02558944394821 0 0 0
319 0 8 -1.05 6.601559505971201 22.326617622929255 -50.93333329979774 0 0 0
317 0 8 -1.05 6.344049970983858 24.490814518783655 -53.04908595034023 0 0 0
245 0 7 1.575 1.1357396173226677 19.342445477662224 -49.885945249195835 0 0 0
316 0 7 1.575 5.454486741815361 23.587246766285194 -50.14508755220323 0 0 0
251 0 6 1.05 4.479660943120436 18.23932812308743 -51.381748370034366 0 0 0
308 0 6 1.05 2.2397284767116945 22.445108991351837 -48.95440710108064 0 0 0
303 0 6 1.05 25.37804198971829 24.62034255237021 -48.94762719621476 -1 0 0
302 0 7 1.575 0.04723229292362037 22.458386061523896 -50.91491721067384 0 0 0
252 0 6 1.05 4.293382417039524 20.303288172730273 -49.12471502247476 0 0 0
257 0 7 1.575 6.449072703493396 18.213288952552208 -48.91934176692304 0 0 0
258 0 7 1.575 6.494721710990264 20.339340590713377 -51.128723161273356 0 0 0
309 0 7 1.575 2.29247673833438 24.499022788337154 -51.11862660368507 0 0 0
255 0 8 -1.05 6.536885500758745 18.2966185351065 -50.87411188177777 0 0 0
304 0 8 -1.05 0.15328161981017382 22.558350380992884 -48.89115787348762 0 0 0
305 0 8 -1.05 0.3123605384111031 24.49814420677112 -50.94230497269448 0 0 0
256 0 8 -1.05 6.402985063197895 20.233878934760135 -48.944212025860224 0 0 0
254 0 8 -1.05 4.4866028684791655 20.316981773750392 -51.09033531860372 0 0 0
307 0 8 -1.05 2.162684981253087 24.66036289643772 -48.57443308681929 0 0 0
253 0 8 -1.05 4.539518120773221 18.405011278387637 -48.4444072994114 0 0 0
306 0 8 -1.05 2.169319722997472 22.510215424083214 -50.97928996821716 0 0 0
301 0 8 -1.05 25.428839600571614 22.59874788944759 -52.889793771916764 -1 0 0
242 0 8 -1.05 25.439970785153687 20.492595564324215 -50.95319403086296 -1 0 0
326 0 8 -1.05 10.83724708243218 22.493422805671255 -50.84897862362595 0 0 0
327 0 8 -1.05 10.61237096810606 24.479105094652002 -48.715113266405815 0 0 0
325 0 8 -1.05 8.620691564894061 24.61500144503285 -50.920362956215804 0 0 0
324 0 8 -1.05 8.747607527770757 22.612607068359427 -48.7386936693221 0 0 0
329 0 6 1.05 10.67048568465265 24.56256105562123 -51.230193886822285 0 0 0
322 0 6 1.05 8.65617524357328 22.53650487636038 -51.24884973570378 0 0 0
323 0 7 1.575 8.613745557965148 24.624328996029995 -48.97928107208392 0 0 0
328 0 7 1.575 10.718579577364821 22.49200396895848 -48.90923298597656 0 0 0
265 0 7 1.575 9.630030587883585 19.27087669032758 -49.94075573475344 0 0 0
264 0 8 -1.05 8.865945546173903 18.37569492985089 -52.92868641328356 0 0 0
330 0 8 -1.05 11.066887372224862 24.88171182433661 -53.179085049012194 0 0 0
266 0 8 -1.05 10.72258585545198 20.27708544846186 -52.908845499283665 0 0 0
267 0 6 1.05 10.86635744218439 18.264390643995014 -53.33123713372818 0 0 0
263 0 7 1.575 8.751006572799339 20.33204617636857 -53.04531302828907 0 0 0
321 0 8 -1.05 8.610681307793389 22.269343186826536 -53.2013973034884 0 0 0
262 0 8 -1.05 8.537304168303896 20.442549937750716 -50.93152870723103 0 0 0
268 0 8 -1.05 11.019244091287444 18.17756364584284 -50.58413284100503 0 0 0
331 0 7 1.575 11.958802436291775 21.46844280071995 -52.14098183373001 0 0 0
280 0 7 1.575 16.26051942652691 17.319852852960707 -52.21503680355578 0 0 0
273 0 8 -1.05 13.07914707689831 18.450324944292444 -48.566756852236765 0 0 0
274 0 8 -1.05 13.153220141554888 20.456476790358877 -50.75723881846374 0 0 0
276 0 8 -1.05 13.760535084383832 20.571198066824568 -47.08198478683437 0 0 0
275 0 8 -1.05 15.244827017553819 18.529574921836208 -50.96448575052007 0 0 0
278 0 7 1.575 15.134235311245526 20.509804603405556 -51.027192766518816 0 0 0
277 0 6 1.05 14.79632924352695 17.60500771307887 -49.274991849796926 0 0 0
272 0 7 1.575 12.721141266835915 20.333876433347296 -48.890393264606864 0 0 0
271 0 6 1.05 12.977996479654477 18.415049419130295 -51.21467706694758 0 0 0
336 0 7 1.575 13.818010480604524 23.58428503532312 -49.914466994415015 0 0 0
337 0 8 -1.05 14.96152850539081 24.754865367882758 -53.06434088317447 0 0 0
339 0 8 -1.05 15.122552845448885 22.556324914899093 -50.83930730131583 0 0 0
279 0 8 -1.05 15.297534804008066 20.80047012583801 -52.88175682292485 0 0 0
333 0 8 -1.05 12.760568309060488 24.737359245299086 -50.95551423321058 0 0 0
335 0 8 -1.05 13.197061056922454 22.737882019983083 -52.8667744892453 0 0 0
334 0 7 1.575 12.961443229675224 24.65864113782004 -52.96234863482303 0 0 0
270 0 8 -1.05 12.90683954227466 18.16331796324206 -53.15999777553274 0 0 0
338 0 7 1.575 15.18506685983811 22.744227796654346 -52.89098399560848 0 0 0
346 0 8 -1.05 19.78146078780657 23.05542351075725 -50.58589409509109 0 0 0
293 0 8 -1.05 21.250896843444185 18.66169930645588 -48.1019606770522 0 0 0
347 0 8 -1.05 17.55134624691113 23.48283585711088 -48.157750643357964 0 0 0
294 0 8 -1.05 21.238540809980506 20.266621192374025 -50.90701761402722 0 0 0
296 0 8 -1.05 23.25194488871515 20.225369003457978 -48.12842971083657 0 0 0
345 0 8 -1.05 17.570011884463344 24.744252566030802 -51.057441318637906 0 0 0
344 0 8 -1.05 15.50576448372473 22.603254227103662 -46.49861935780964 0 0 0
295 0 8 -1.05 23.21889745022226 18.343357933994742 -50.97609586633166 0 0 0
349 0 7 1.575 19.54928803193889 24.889569237718458 -51.18420442374071 0 0 0
298 0 6 1.05 23.279699440987972 20.384399097167545 -51.370525574090415 0 0 0
297 0 6 1.05 23.48028710729135 18.28982856811668 -49.00511197472967 0 0 0
292 0 7 1.575 21.09947414072573 20.452285146873287 -49.010989788899636 0 0 0
342 0 6 1.05 17.262029024482604 24.706583571188865 -53.09338914789234 0 0 0
343 0 7 1.575 16.79666480092085 24.785533954607427 -49.37493002160836 0 0 0
348 0 6 1.05 18.207752497334344 22.1466388436723 -49.69633007883333 0 0 0
291 0 7 1.575 21.224356735285212 18.254748282212887 -51.326317210455485 0 0 0
356 0 7 1.575 22.227930421411322 23.67536508623116 -50.066498788606204 0 0 0
285 0 7 1.575 17.941059762448056 19.375339294511278 -49.87506220611489 0 0 0
357 0 8 -1.05 23.528166828548958 24.725725596750657 -53.180641110271544 0 0 0
359 0 8 -1.05 23.487944824731006 22.48095729754504 -50.90079019573594 0 0 0
299 0 8 -1.05 23.646875549526797 20.65115269415844 -53.280268375267866 0 0 0
353 0 8 -1.05 21.539223814071295 25.10391879760893 -51.21511218994004 0 0 0
284 0 8 -1.05 17.419768016430204 18.62613961686008 -53.02939650655759 0 0 0
350 0 8 -1.05 19.290290033070253 24.905984022483974 -53.103336287481405 0 0 0
355 0 8 -1.05 21.249043394703865 22.622935020826297 -52.972758802122485 0 0 0
286 0 8 -1.05 18.32702621106401 20.80114366074077 -51.313739669346646 0 0 0
287 0 6 1.05 19.089697723675783 17.880852351222007 -53.79198252619933 0 0 0
354 0 6 1.05 21.216058386499157 24.53727127326242 -53.594616678211295 0 0 0
283 0 6 1.05 17.26658669526504 20.665776223704142 -53.17844354368488 0 0 0
358 0 6 1.05 23.267856717035926 22.60825361042161 -53.09066681875552 0 0 0
351 0 7 1.575 20.08625535146572 21.592275100144153 -51.85965880675961 0 0 0
290 0 8 -1.05 20.96206540815564 18.194060053104206 -53.19885453116078 0 0 0
288 0 8 -1.05 19.356283774934045 18.185749978954007 -50.48605393023172 0 0 0
282 0 8 -1.05 16.253385412340933 20.56780626593556 -49.34420101337931 0 0 0
341 0 8 -1.05 17.05670201959215 22.721890655423998 -53.38005295911737 0 0 0
300 0 7 1.575 24.494187384146933 17.20503047936777 -52.11644896142069 0 0 0
416 0 7 1.575 7.392595223448934 4.4904121141406526 -47.75540076065916 0 0 0
368 0 6 1.05 2.100060664899949 3.606429190247534 -46.73427587638933 0 0 0
415 0 6 1.05 6.441465574807391 7.618077175544321 -46.572232374444326 0 0 0
361 0 7 1.575 0.11641206983723422 1.3820146607060038 -46.764682013281686 0 0 0
408 0 7 1.575 4.32143575322778 5.47320526185075 -46.61306072230555 0 0 0
371 0 8 -1.05 4.155946276755225 3.5113599611771877 -46.60404144797355 0 0 0
411 0 8 -1.05 4.310538007682345 7.485668740291447 -46.648669999267234 0 0 0
80 0 8 -1.05 6.3862240453544805 7.769831781978889 -48.588588023840664 0 0 0
72 0 8 -1.05 4.131508926967069 5.407713752676719 -48.56551497537308 0 0 0
365 0 8 -1.05 2.177517778151686 1.339898614268664 -46.61314958059255 0 0 0
406 0 8 -1.05 2.233056916170065 5.618814021353182 -46.3137402551443 0 0 0
412 0 8 -1.05 6.303721859054192 5.5009111050371855 -46.486349099582945 0 0 0
364 0 8 -1.05 0.07541014109652396 3.3532277858182944 -46.57425474751612 0 0 0
9 0 8 -1.05 2.405470007215538 3.273907203538948 -48.720904083719155 0 0 0
373 0 8 -1.05 6.417095151904278 1.0104265683609956 -46.38185947985039 0 0 0
404 0 8 -1.05 0.04205121385968532 7.8661749508005485 -46.348507236148635 0 0 0
1 0 8 -1.05 0.3062567727435856 1.2497718798176658 -48.73990138105404 0 0 0
372 0 7 1.575 4.577184535003128 1.6462337584123152 -46.56994103894976 0 0 0
405 0 7 1.575 1.4208209932699216 7.037794755389798 -47.38709029762753 0 0 0
369 0 7 1.575 2.3515496191893814 1.2539821458510616 -48.791577221190835 0 0 0
663 0 7 1.575 2.2466152076721158 5.379781282308043 -44.30124340721996 0 0 0
414 0 6 1.05 6.236136756018598 5.373964555707752 -44.46413000338308 0 0 0
362 0 6 1.05 0.012044597856029071 3.414995026749325 -44.53877656851421 0 0 0
409 0 7 1.575 4.230781913206941 7.749579954800549 -44.702824652730676 0 0 0
367 0 7 1.575 2.2227098538933947 1.4314827156337493 -44.62207822280193 0 0 0
366 0 8 -1.05 2.0584989521270978 3.412050712339298 -44.460934895265055 0 0 0
410 0 8 -1.05 4.175356849862155 5.767977742991454 -44.50613311201529 0 0 0
407 0 8 -1.05 2.1073086678809596 7.653537398195123 -44.17975890504107 0 0 0
363 0 8 -1.05 0.25936828536016265 1.3257082880617026 -44.552669816355106 0 0 0
665 0 8 -1.05 4.110965791504202 7.80342218255447 -42.13656488499311 0 0 0
374 0 8 -1.05 6.674424669623985 3.232044387598393 -44.35214899909192 0 0 0
667 0 8 -1.05 6.540360214114754 5.44045275883182 -42.221893026463725 0 0 0
413 0 8 -1.05 6.195447203634786 7.57295865218869 -44.37549721847089 0 0 0
615 0 7 1.575 1.3981083696441177 2.458098141495253 -41.47600343953191 0 0 0
666 0 7 1.575 5.308983727590301 6.5888711045746735 -41.33921128161636 0 0 0
618 0 7 1.575 4.323946274736123 1.335968060209418 -42.64265962796789 0 0 0
655 0 6 1.05 0.04005773135391958 5.470203730780918 -42.186513528945554 0 0 0
625 0 6 1.05 6.42826320453296 3.4116524561312196 -42.38513710635559 0 0 0
662 0 7 1.575 2.179167725997714 7.716661583783264 -42.19821541312735 0 0 0
622 0 8 -1.05 6.298253385053591 1.2248602436576752 -42.51743151050639 0 0 0
658 0 8 -1.05 0.14306559991989232 7.806846611065204 -42.06286895633946 0 0 0
621 0 8 -1.05 4.467182011647677 3.069822108513119 -41.8812358129966 0 0 0
659 0 8 -1.05 2.0591045467650835 5.729140774899684 -42.26154045129782 0 0 0
616 0 8 -1.05 2.3603740295440696 1.1820077379376315 -42.570802859691625 0 0 0
370 0 8 -1.05 4.287603244956389 1.1855006992747217 -44.584217783194795 0 0 0
403 0 8 -1.05 0.06925947067013374 5.648375721621857 -44.22343944331816 0 0 0
614 0 8 -1.05 25.389604091036052 3.402616032905644 -42.299611010319865 -1 0 0
626 0 7 1.575 6.788640296871583 1.1825186541126027 -44.44835232567368 0 0 0
418 0 8 -1.05 8.50106087514387 7.789293043917319 -46.6345466856572 0 0 0
21 0 8 -1.05 8.564313007599349 1.1734481584839582 -48.79344497726842 0 0 0
382 0 6 1.05 10.664067511758903 3.433570603492884 -46.69162196772833 0 0 0
375 0 6 1.05 8.584027400664185 1.3582619713411008 -46.78839721142583 0 0 0
379 0 8 -1.05 10.663495981510186 1.3077035084356345 -46.557428550740404 0 0 0
420 0 8 -1.05 10.741577450785979 5.513331064912559 -46.658067668261204 0 0 0
378 0 8 -1.05 8.566012528453784 3.4400253473317286 -46.544158254362344 0 0 0
29 0 8 -1.05 10.723702059172348 3.494780618787596 -48.724223133678265 0 0 0
419 0 7 1.575 9.609202149191015 6.639154464272409 -45.623196281406955 0 0 0
383 0 7 1.575 11.747980132591895 0.24558426298632205 -47.774257209445224 0 0 0
417 0 8 -1.05 8.61652663542961 5.487691351573589 -44.37313625326484 0 0 0