LAMMPS data file via write_data, version 29 Sep 2021, timestep = 9141454

4356 atoms
10 atom types
72 bonds
6 bond types
108 angles
6 angle types
0 dihedrals
2 dihedral types
18 impropers
2 improper types

0 25.44 xlo xhi
0 25.44 ylo yhi
-64.778423 32.908 zlo zhi

Masses

1 12.011
2 1.008
3 15.9994
4 15.9994
5 1.008
6 55.845
7 55.845
8 15.9994
9 15.9994
10 1.008

Pair Coeffs # lj/cut/coul/long

1 0.0988 3.31521
2 0.0161 2.4473
3 0.1463 3.04812
4 0.093 3.24287
5 0.0047 0.537925
6 9.0298e-07 4.9062
7 9.0298e-07 4.9062
8 0.1554 3.16554
9 0.1554 3.16554
10 0 0

Bond Coeffs # harmonic

1 361.8 1.105
2 652.57 1.218
3 383.13 1.351
4 563.51 0.973
5 554.135 1
6 0 2.08

Angle Coeffs # harmonic

1 51.617 106.55
2 65.93 123.65
3 65.262 109.49
4 115.745 122.1
5 118.817 130.25
6 30 109.47

Dihedral Coeffs # fourier

1 1 2.3 2 180
2 2 2.3 2 180 1.9 1 0

Improper Coeffs # cvff

1 10.5 -1 2
2 10.5 -1 2

Atoms # full

140 0 7 1.575 7.5011779999999995 8.69944 -51.68158699999998 0 0 0
71 0 7 1.575 3.261178 4.45944 -51.68158699999998 0 0 0
78 0 6 1.05 6.441177999999998 5.519439999999998 -52.74158699999998 0 0 0
3 0 6 1.05 0.081178 3.39944 -52.74158699999998 0 0 0
74 0 6 1.05 4.321177999999998 7.639439999999998 -52.74158699999998 0 0 0
7 0 6 1.05 2.201178 1.2794399999999997 -52.74158699999998 0 0 0
6 0 8 -1.05 2.164343 3.362605 -52.778423000000004 0 0 0
75 0 8 -1.05 4.358012999999998 5.556274999999998 -52.778423000000004 0 0 0
70 0 8 -1.05 2.238013 7.676274999999998 -52.704751999999985 0 0 0
4 0 8 -1.05 0.118013 1.3162749999999996 -52.778423000000004 0 0 0
73 0 8 -1.05 4.284343 7.676274999999998 -50.658422 0 0 0
19 0 8 -1.05 6.478012999999998 3.4362749999999997 -52.704751999999985 0 0 0
79 0 8 -1.05 6.478012999999998 5.4826049999999995 -50.658422 0 0 0
77 0 8 -1.05 6.404341999999999 7.602603999999999 -52.778423000000004 0 0 0
5 0 7 1.575 1.1411780000000002 2.3394399999999997 -49.561587 0 0 0
453 0 7 1.575 3.261178 8.69944 -47.441587 0 0 0
416 0 7 1.575 7.5011779999999995 4.45944 -47.441587 0 0 0
76 0 7 1.575 5.381177999999999 6.579439999999999 -49.561587 0 0 0
11 0 6 1.05 4.321177999999998 1.2794399999999997 -50.62158699999998 0 0 0
368 0 6 1.05 2.201178 3.39944 -46.381586999999996 0 0 0
415 0 6 1.05 6.441177999999998 7.639439999999998 -46.381586999999996 0 0 0
68 0 6 1.05 2.201178 5.519439999999998 -48.501587 0 0 0
63 0 6 1.05 0.081178 7.639439999999998 -48.501587 0 0 0
62 0 7 1.575 0.081178 5.519439999999998 -50.62158699999998 0 0 0
12 0 7 1.575 4.321177999999998 3.39944 -48.501587 0 0 0
17 0 6 1.05 6.441177999999998 1.2794399999999997 -48.501587 0 0 0
361 0 7 1.575 0.081178 1.2794399999999997 -46.381586999999996 0 0 0
18 0 7 1.575 6.441177999999998 3.39944 -50.62158699999998 0 0 0
69 0 7 1.575 2.201178 7.639439999999998 -50.62158699999998 0 0 0
408 0 7 1.575 4.321177999999998 5.519439999999998 -46.381586999999996 0 0 0
15 0 8 -1.05 6.404341999999999 1.3162749999999996 -50.58475199999998 0 0 0
371 0 8 -1.05 4.284343 3.4362749999999997 -46.41842199999999 0 0 0
411 0 8 -1.05 4.358012999999998 7.602603999999999 -46.344752 0 0 0
64 0 8 -1.05 0.118013 5.556274999999998 -48.538422 0 0 0
80 0 8 -1.05 6.478012999999998 7.676274999999998 -48.464752000000004 0 0 0
65 0 8 -1.05 0.118013 7.602603999999999 -50.58475199999998 0 0 0
72 0 8 -1.05 4.284343 5.4826049999999995 -48.464752000000004 0 0 0
365 0 8 -1.05 2.164343 1.3162749999999996 -46.344752 0 0 0
16 0 8 -1.05 6.404341999999999 3.362605 -48.538422 0 0 0
406 0 8 -1.05 2.238013 5.4826049999999995 -46.41842199999999 0 0 0
412 0 8 -1.05 6.404341999999999 5.556274999999998 -46.344752 0 0 0
14 0 8 -1.05 4.358012999999998 3.362605 -50.58475199999998 0 0 0
67 0 8 -1.05 2.164343 7.602603999999999 -48.538422 0 0 0
13 0 8 -1.05 4.358012999999998 1.3162749999999996 -48.538422 0 0 0
364 0 8 -1.05 0.118013 3.362605 -46.344752 0 0 0
66 0 8 -1.05 2.164343 5.556274999999998 -50.58475199999998 0 0 0
9 0 8 -1.05 2.238013 3.4362749999999997 -48.464752000000004 0 0 0
8 0 8 -1.05 2.238013 1.242605000000001 -50.658422 0 0 0
10 0 8 -1.05 4.284343 1.242605000000001 -52.704751999999985 0 0 0
373 0 8 -1.05 6.478012999999998 1.242605000000001 -46.41842199999999 0 0 0
61 0 8 -1.05 0.04434300000000149 5.4826049999999995 -52.704751999999985 0 0 0
2 0 8 -1.05 0.04434300000000149 3.4362749999999997 -50.658422 0 0 0
404 0 8 -1.05 0.04434300000000149 7.676274999999998 -46.41842199999999 0 0 0
1 0 8 -1.05 0.04434300000000149 1.242605000000001 -48.464752000000004 0 0 0
372 0 7 1.575 5.381177999999999 2.3394399999999997 -45.321586999999994 0 0 0
405 0 7 1.575 1.1411780000000002 6.579439999999999 -45.321586999999994 0 0 0
128 0 8 -1.05 2.238013 9.722605 -50.658422 0 0 0
130 0 8 -1.05 4.284343 9.722605 -52.704751999999985 0 0 0
457 0 8 -1.05 6.478012999999998 9.722605 -46.41842199999999 0 0 0
123 0 7 1.575 0.081178 11.87944 -52.74158699999998 0 0 0
127 0 6 1.05 2.201178 9.75944 -52.74158699999998 0 0 0
126 0 8 -1.05 2.164343 11.842605 -52.778423000000004 0 0 0
124 0 8 -1.05 0.118013 9.796275 -52.778423000000004 0 0 0
139 0 8 -1.05 6.478012999999998 11.916275 -52.704751999999985 0 0 0
125 0 7 1.575 1.1411780000000002 10.81944 -49.561587 0 0 0
131 0 7 1.575 4.321177999999998 9.75944 -50.62158699999998 0 0 0
452 0 7 1.575 2.201178 11.87944 -46.381586999999996 0 0 0
132 0 7 1.575 4.321177999999998 11.87944 -48.501587 0 0 0
137 0 6 1.05 6.441177999999998 9.75944 -48.501587 0 0 0
445 0 7 1.575 0.081178 9.75944 -46.381586999999996 0 0 0
138 0 6 1.05 6.441177999999998 11.87944 -50.62158699999998 0 0 0
135 0 8 -1.05 6.404341999999999 9.796275 -50.58475199999998 0 0 0
455 0 8 -1.05 4.284343 11.916275 -46.41842199999999 0 0 0
449 0 8 -1.05 2.164343 9.796275 -46.344752 0 0 0
136 0 8 -1.05 6.404341999999999 11.842605 -48.538422 0 0 0
134 0 8 -1.05 4.358012999999998 11.842605 -50.58475199999998 0 0 0
133 0 8 -1.05 4.358012999999998 9.796275 -48.538422 0 0 0
448 0 8 -1.05 0.118013 11.842605 -46.344752 0 0 0
129 0 8 -1.05 2.238013 11.916275 -48.464752000000004 0 0 0
121 0 8 -1.05 0.04434300000000149 9.722605 -48.464752000000004 0 0 0
122 0 8 -1.05 0.04434300000000149 11.916275 -50.658422 0 0 0
456 0 7 1.575 5.381177999999999 10.81944 -45.321586999999994 0 0 0
20 0 7 1.575 7.5011779999999995 0.21943999999999877 -51.68158699999998 0 0 0
369 0 7 1.575 3.261178 0.21943999999999877 -47.441587 0 0 0
81 0 8 -1.05 8.524343 5.4826049999999995 -52.704751999999985 0 0 0
22 0 8 -1.05 8.524343 3.4362749999999997 -50.658422 0 0 0
418 0 8 -1.05 8.524343 7.676274999999998 -46.41842199999999 0 0 0
21 0 8 -1.05 8.524343 1.242605000000001 -48.464752000000004 0 0 0
91 0 7 1.575 11.741178000000001 4.45944 -51.68158699999998 0 0 0
23 0 7 1.575 8.561178 3.39944 -52.74158699999998 0 0 0
27 0 7 1.575 10.681178000000001 1.2794399999999997 -52.74158699999998 0 0 0
26 0 8 -1.05 10.644343000000001 3.362605 -52.778423000000004 0 0 0
90 0 8 -1.05 10.718013000000001 7.676274999999998 -52.704751999999985 0 0 0
24 0 8 -1.05 8.598013 1.3162749999999996 -52.778423000000004 0 0 0
25 0 7 1.575 9.621178 2.3394399999999997 -49.561587 0 0 0
467 0 7 1.575 11.741178000000001 8.69944 -47.441587 0 0 0
382 0 6 1.05 10.681178000000001 3.39944 -46.381586999999996 0 0 0
88 0 7 1.575 10.681178000000001 5.519439999999998 -48.501587 0 0 0
83 0 7 1.575 8.561178 7.639439999999998 -48.501587 0 0 0
82 0 6 1.05 8.561178 5.519439999999998 -50.62158699999998 0 0 0
375 0 6 1.05 8.561178 1.2794399999999997 -46.381586999999996 0 0 0
89 0 6 1.05 10.681178000000001 7.639439999999998 -50.62158699999998 0 0 0
84 0 8 -1.05 8.598013 5.556274999999998 -48.538422 0 0 0
85 0 8 -1.05 8.598013 7.602603999999999 -50.58475199999998 0 0 0
379 0 8 -1.05 10.644343000000001 1.3162749999999996 -46.344752 0 0 0
420 0 8 -1.05 10.718013000000001 5.4826049999999995 -46.41842199999999 0 0 0
87 0 8 -1.05 10.644343000000001 7.602603999999999 -48.538422 0 0 0
378 0 8 -1.05 8.598013 3.362605 -46.344752 0 0 0
86 0 8 -1.05 10.644343000000001 5.556274999999998 -50.58475199999998 0 0 0
29 0 8 -1.05 10.718013000000001 3.4362749999999997 -48.464752000000004 0 0 0
28 0 8 -1.05 10.718013000000001 1.242605000000001 -50.658422 0 0 0
419 0 7 1.575 9.621178 6.579439999999999 -45.321586999999994 0 0 0
141 0 8 -1.05 8.524343 9.722605 -48.464752000000004 0 0 0
142 0 8 -1.05 8.524343 11.916275 -50.658422 0 0 0
148 0 8 -1.05 10.718013000000001 9.722605 -50.658422 0 0 0
143 0 7 1.575 8.561178 11.87944 -52.74158699999998 0 0 0
147 0 7 1.575 10.681178000000001 9.75944 -52.74158699999998 0 0 0
146 0 8 -1.05 10.644343000000001 11.842605 -52.778423000000004 0 0 0
144 0 8 -1.05 8.598013 9.796275 -52.778423000000004 0 0 0
145 0 7 1.575 9.621178 10.81944 -49.561587 0 0 0
466 0 6 1.05 10.681178000000001 11.87944 -46.381586999999996 0 0 0
459 0 7 1.575 8.561178 9.75944 -46.381586999999996 0 0 0
463 0 8 -1.05 10.644343000000001 9.796275 -46.344752 0 0 0
462 0 8 -1.05 8.598013 11.842605 -46.344752 0 0 0
149 0 8 -1.05 10.718013000000001 11.916275 -48.464752000000004 0 0 0
383 0 7 1.575 11.741178000000001 0.21943999999999877 -47.441587 0 0 0
710 0 7 1.575 7.5011779999999995 8.69944 -43.20158699999999 0 0 0
663 0 7 1.575 3.261178 4.45944 -43.20158699999999 0 0 0
414 0 6 1.05 6.441177999999998 5.519439999999998 -44.26158699999999 0 0 0
362 0 6 1.05 0.081178 3.39944 -44.26158699999999 0 0 0
409 0 7 1.575 4.321177999999998 7.639439999999998 -44.26158699999999 0 0 0
367 0 7 1.575 2.201178 1.2794399999999997 -44.26158699999999 0 0 0
366 0 8 -1.05 2.164343 3.362605 -44.298423000000014 0 0 0
410 0 8 -1.05 4.358012999999998 5.556274999999998 -44.298423000000014 0 0 0
407 0 8 -1.05 2.238013 7.676274999999998 -44.224751999999995 0 0 0
363 0 8 -1.05 0.118013 1.3162749999999996 -44.298423000000014 0 0 0
665 0 8 -1.05 4.284343 7.676274999999998 -42.17842200000001 0 0 0
374 0 8 -1.05 6.478012999999998 3.4362749999999997 -44.224751999999995 0 0 0
667 0 8 -1.05 6.478012999999998 5.4826049999999995 -42.17842200000001 0 0 0
413 0 8 -1.05 6.404341999999999 7.602603999999999 -44.298423000000014 0 0 0
615 0 7 1.575 1.1411780000000002 2.3394399999999997 -41.081586999999985 0 0 0
963 0 7 1.575 3.261178 8.69944 -38.96158700000001 0 0 0
924 0 7 1.575 7.5011779999999995 4.45944 -38.96158700000001 0 0 0
666 0 7 1.575 5.381177999999999 6.579439999999999 -41.081586999999985 0 0 0
618 0 7 1.575 4.321177999999998 1.2794399999999997 -42.14158699999999 0 0 0
661 0 6 1.05 2.201178 5.519439999999998 -40.02158700000001 0 0 0
656 0 7 1.575 0.081178 7.639439999999998 -40.02158700000001 0 0 0
655 0 6 1.05 0.081178 5.519439999999998 -42.14158699999999 0 0 0
619 0 7 1.575 4.321177999999998 3.39944 -40.02158700000001 0 0 0
624 0 6 1.05 6.441177999999998 1.2794399999999997 -40.02158700000001 0 0 0
625 0 6 1.05 6.441177999999998 3.39944 -42.14158699999999 0 0 0
662 0 7 1.575 2.201178 7.639439999999998 -42.14158699999999 0 0 0
622 0 8 -1.05 6.404341999999999 1.3162749999999996 -42.10475199999999 0 0 0
875 0 8 -1.05 4.284343 3.4362749999999997 -37.938422 0 0 0
657 0 8 -1.05 0.118013 5.556274999999998 -40.05842200000001 0 0 0
668 0 8 -1.05 6.478012999999998 7.676274999999998 -39.984752000000015 0 0 0
658 0 8 -1.05 0.118013 7.602603999999999 -42.10475199999999 0 0 0
664 0 8 -1.05 4.284343 5.4826049999999995 -39.984752000000015 0 0 0
623 0 8 -1.05 6.404341999999999 3.362605 -40.05842200000001 0 0 0
913 0 8 -1.05 2.238013 5.4826049999999995 -37.938422 0 0 0
621 0 8 -1.05 4.358012999999998 3.362605 -42.10475199999999 0 0 0
660 0 8 -1.05 2.164343 7.602603999999999 -40.05842200000001 0 0 0
620 0 8 -1.05 4.358012999999998 1.3162749999999996 -40.05842200000001 0 0 0
659 0 8 -1.05 2.164343 5.556274999999998 -42.10475199999999 0 0 0
617 0 8 -1.05 2.238013 3.4362749999999997 -39.984752000000015 0 0 0
616 0 8 -1.05 2.238013 1.242605000000001 -42.17842200000001 0 0 0
370 0 8 -1.05 4.284343 1.242605000000001 -44.224751999999995 0 0 0
877 0 8 -1.05 6.478012999999998 1.242605000000001 -37.938422 0 0 0
403 0 8 -1.05 0.04434300000000149 5.4826049999999995 -44.224751999999995 0 0 0
614 0 8 -1.05 0.04434300000000149 3.4362749999999997 -42.17842200000001 0 0 0
911 0 8 -1.05 0.04434300000000149 7.676274999999998 -37.938422 0 0 0
613 0 8 -1.05 0.04434300000000149 1.242605000000001 -39.984752000000015 0 0 0
876 0 7 1.575 5.381177999999999 2.3394399999999997 -36.841587000000004 0 0 0
912 0 7 1.575 1.1411780000000002 6.579439999999999 -36.841587000000004 0 0 0
872 0 6 1.05 2.201178 3.39944 -37.901587000000006 0 0 0
923 0 6 1.05 6.441177999999998 7.639439999999998 -37.901587000000006 0 0 0
922 0 6 1.05 6.441177999999998 5.519439999999998 -35.781587 0 0 0
866 0 7 1.575 0.081178 3.39944 -35.781587 0 0 0
917 0 7 1.575 4.321177999999998 7.639439999999998 -35.781587 0 0 0
871 0 6 1.05 2.201178 1.2794399999999997 -35.781587 0 0 0
865 0 7 1.575 0.081178 1.2794399999999997 -37.901587000000006 0 0 0
916 0 7 1.575 4.321177999999998 5.519439999999998 -37.901587000000006 0 0 0
919 0 8 -1.05 4.358012999999998 7.602603999999999 -37.86475200000001 0 0 0
870 0 8 -1.05 2.164343 3.362605 -35.818422999999996 0 0 0
918 0 8 -1.05 4.358012999999998 5.556274999999998 -35.818422999999996 0 0 0
869 0 8 -1.05 2.164343 1.3162749999999996 -37.86475200000001 0 0 0
914 0 8 -1.05 2.238013 7.676274999999998 -35.744752000000005 0 0 0
867 0 8 -1.05 0.118013 1.3162749999999996 -35.818422999999996 0 0 0
920 0 8 -1.05 6.404341999999999 5.556274999999998 -37.86475200000001 0 0 0
878 0 8 -1.05 6.478012999999998 3.4362749999999997 -35.744752000000005 0 0 0
868 0 8 -1.05 0.118013 3.362605 -37.86475200000001 0 0 0
921 0 8 -1.05 6.404341999999999 7.602603999999999 -35.818422999999996 0 0 0
874 0 8 -1.05 4.284343 1.242605000000001 -35.744752000000005 0 0 0
910 0 8 -1.05 0.04434300000000149 5.4826049999999995 -35.744752000000005 0 0 0
700 0 8 -1.05 2.238013 9.722605 -42.17842200000001 0 0 0
454 0 8 -1.05 4.284343 9.722605 -44.224751999999995 0 0 0
967 0 8 -1.05 6.478012999999998 9.722605 -37.938422 0 0 0
446 0 6 1.05 0.081178 11.87944 -44.26158699999999 0 0 0
451 0 6 1.05 2.201178 9.75944 -44.26158699999999 0 0 0
450 0 8 -1.05 2.164343 11.842605 -44.298423000000014 0 0 0
447 0 8 -1.05 0.118013 9.796275 -44.298423000000014 0 0 0
458 0 8 -1.05 6.478012999999998 11.916275 -44.224751999999995 0 0 0
699 0 7 1.575 1.1411780000000002 10.81944 -41.081586999999985 0 0 0
702 0 6 1.05 4.321177999999998 9.75944 -42.14158699999999 0 0 0
703 0 7 1.575 4.321177999999998 11.87944 -40.02158700000001 0 0 0
708 0 6 1.05 6.441177999999998 9.75944 -40.02158700000001 0 0 0
709 0 7 1.575 6.441177999999998 11.87944 -42.14158699999999 0 0 0
706 0 8 -1.05 6.404341999999999 9.796275 -42.10475199999999 0 0 0
965 0 8 -1.05 4.284343 11.916275 -37.938422 0 0 0
707 0 8 -1.05 6.404341999999999 11.842605 -40.05842200000001 0 0 0
705 0 8 -1.05 4.358012999999998 11.842605 -42.10475199999999 0 0 0
704 0 8 -1.05 4.358012999999998 9.796275 -40.05842200000001 0 0 0
701 0 8 -1.05 2.238013 11.916275 -39.984752000000015 0 0 0
697 0 8 -1.05 0.04434300000000149 9.722605 -39.984752000000015 0 0 0
698 0 8 -1.05 0.04434300000000149 11.916275 -42.17842200000001 0 0 0
964 0 8 -1.05 4.284343 9.722605 -35.744752000000005 0 0 0
966 0 7 1.575 5.381177999999999 10.81944 -36.841587000000004 0 0 0
962 0 7 1.575 2.201178 11.87944 -37.901587000000006 0 0 0
956 0 7 1.575 0.081178 11.87944 -35.781587 0 0 0
961 0 6 1.05 2.201178 9.75944 -35.781587 0 0 0
955 0 6 1.05 0.081178 9.75944 -37.901587000000006 0 0 0
960 0 8 -1.05 2.164343 11.842605 -35.818422999999996 0 0 0
959 0 8 -1.05 2.164343 9.796275 -37.86475200000001 0 0 0
957 0 8 -1.05 0.118013 9.796275 -35.818422999999996 0 0 0
968 0 8 -1.05 6.478012999999998 11.916275 -35.744752000000005 0 0 0
958 0 8 -1.05 0.118013 11.842605 -37.86475200000001 0 0 0
626 0 7 1.575 7.5011779999999995 0.21943999999999877 -43.20158699999999 0 0 0
873 0 7 1.575 3.261178 0.21943999999999877 -38.96158700000001 0 0 0
417 0 8 -1.05 8.524343 5.4826049999999995 -44.224751999999995 0 0 0
628 0 8 -1.05 8.524343 3.4362749999999997 -42.17842200000001 0 0 0
926 0 8 -1.05 8.524343 7.676274999999998 -37.938422 0 0 0
627 0 8 -1.05 8.524343 1.242605000000001 -39.984752000000015 0 0 0
677 0 7 1.575 11.741178000000001 4.45944 -43.20158699999999 0 0 0
376 0 7 1.575 8.561178 3.39944 -44.26158699999999 0 0 0
381 0 7 1.575 10.681178000000001 1.2794399999999997 -44.26158699999999 0 0 0
380 0 8 -1.05 10.644343000000001 3.362605 -44.298423000000014 0 0 0
421 0 8 -1.05 10.718013000000001 7.676274999999998 -44.224751999999995 0 0 0
377 0 8 -1.05 8.598013 1.3162749999999996 -44.298423000000014 0 0 0
629 0 7 1.575 9.621178 2.3394399999999997 -41.081586999999985 0 0 0
978 0 7 1.575 11.741178000000001 8.69944 -38.96158700000001 0 0 0
675 0 6 1.05 10.681178000000001 5.519439999999998 -40.02158700000001 0 0 0
670 0 7 1.575 8.561178 7.639439999999998 -40.02158700000001 0 0 0
669 0 7 1.575 8.561178 5.519439999999998 -42.14158699999999 0 0 0
676 0 6 1.05 10.681178000000001 7.639439999999998 -42.14158699999999 0 0 0
671 0 8 -1.05 8.598013 5.556274999999998 -40.05842200000001 0 0 0
672 0 8 -1.05 8.598013 7.602603999999999 -42.10475199999999 0 0 0
928 0 8 -1.05 10.718013000000001 5.4826049999999995 -37.938422 0 0 0
674 0 8 -1.05 10.644343000000001 7.602603999999999 -40.05842200000001 0 0 0
673 0 8 -1.05 10.644343000000001 5.556274999999998 -42.10475199999999 0 0 0
631 0 8 -1.05 10.718013000000001 3.4362749999999997 -39.984752000000015 0 0 0
630 0 8 -1.05 10.718013000000001 1.242605000000001 -42.17842200000001 0 0 0
925 0 8 -1.05 8.524343 5.4826049999999995 -35.744752000000005 0 0 0
927 0 7 1.575 9.621178 6.579439999999999 -36.841587000000004 0 0 0
887 0 6 1.05 10.681178000000001 3.39944 -37.901587000000006 0 0 0
881 0 7 1.575 8.561178 3.39944 -35.781587 0 0 0
886 0 7 1.575 10.681178000000001 1.2794399999999997 -35.781587 0 0 0
880 0 6 1.05 8.561178 1.2794399999999997 -37.901587000000006 0 0 0
885 0 8 -1.05 10.644343000000001 3.362605 -35.818422999999996 0 0 0
884 0 8 -1.05 10.644343000000001 1.3162749999999996 -37.86475200000001 0 0 0
929 0 8 -1.05 10.718013000000001 7.676274999999998 -35.744752000000005 0 0 0
882 0 8 -1.05 8.598013 1.3162749999999996 -35.818422999999996 0 0 0
883 0 8 -1.05 8.598013 3.362605 -37.86475200000001 0 0 0
711 0 8 -1.05 8.524343 9.722605 -39.984752000000015 0 0 0
712 0 8 -1.05 8.524343 11.916275 -42.17842200000001 0 0 0
714 0 8 -1.05 10.718013000000001 9.722605 -42.17842200000001 0 0 0
460 0 6 1.05 8.561178 11.87944 -44.26158699999999 0 0 0
465 0 7 1.575 10.681178000000001 9.75944 -44.26158699999999 0 0 0
464 0 8 -1.05 10.644343000000001 11.842605 -44.298423000000014 0 0 0
461 0 8 -1.05 8.598013 9.796275 -44.298423000000014 0 0 0
713 0 7 1.575 9.621178 10.81944 -41.081586999999985 0 0 0
715 0 8 -1.05 10.718013000000001 11.916275 -39.984752000000015 0 0 0
977 0 6 1.05 10.681178000000001 11.87944 -37.901587000000006 0 0 0
971 0 6 1.05 8.561178 11.87944 -35.781587 0 0 0
976 0 7 1.575 10.681178000000001 9.75944 -35.781587 0 0 0
970 0 7 1.575 8.561178 9.75944 -37.901587000000006 0 0 0
975 0 8 -1.05 10.644343000000001 11.842605 -35.818422999999996 0 0 0
974 0 8 -1.05 10.644343000000001 9.796275 -37.86475200000001 0 0 0
972 0 8 -1.05 8.598013 9.796275 -35.818422999999996 0 0 0
973 0 8 -1.05 8.598013 11.842605 -37.86475200000001 0 0 0
888 0 7 1.575 11.741178000000001 0.21943999999999877 -38.96158700000001 0 0 0
969 0 7 1.575 7.5011779999999995 8.69944 -34.721587 0 0 0
915 0 7 1.575 3.261178 4.45944 -34.721587 0 0 0
1186 0 8 -1.05 4.284343 7.676274999999998 -33.698421999999994 0 0 0
1188 0 8 -1.05 6.478012999999998 5.4826049999999995 -33.698421999999994 0 0 0
1137 0 7 1.575 1.1411780000000002 2.3394399999999997 -32.601586999999995 0 0 0
1224 0 7 1.575 3.261178 8.69944 -30.48158699999999 0 0 0
1190 0 7 1.575 7.5011779999999995 4.45944 -30.48158699999999 0 0 0
1187 0 7 1.575 5.381177999999999 6.579439999999999 -32.601586999999995 0 0 0
1141 0 7 1.575 4.321177999999998 1.2794399999999997 -33.661587 0 0 0
1183 100 7 1.575 2.201178 5.519439999999998 -31.541586999999993 0 0 0
1178 100 7 1.575 0.081178 7.639439999999998 -31.541586999999993 0 0 0
1177 0 6 1.05 0.081178 5.519439999999998 -33.661587 0 0 0
1142 100 6 1.05 4.321177999999998 3.39944 -31.541586999999993 0 0 0
1147 100 6 1.05 6.441177999999998 1.2794399999999997 -31.541586999999993 0 0 0
1148 0 7 1.575 6.441177999999998 3.39944 -33.661587 0 0 0
1184 0 6 1.05 2.201178 7.639439999999998 -33.661587 0 0 0
1145 0 8 -1.05 6.404341999999999 1.3162749999999996 -33.624752 0 0 0
1179 100 8 -1.05 0.118013 5.556274999999998 -31.57842199999999 0 0 0
1189 100 8 -1.05 6.478012999999998 7.676274999999998 -31.504751999999996 0 0 0
1180 0 8 -1.05 0.118013 7.602603999999999 -33.624752 0 0 0
1185 100 8 -1.05 4.284343 5.4826049999999995 -31.504751999999996 0 0 0
1146 100 8 -1.05 6.404341999999999 3.362605 -31.57842199999999 0 0 0
1144 0 8 -1.05 4.358012999999998 3.362605 -33.624752 0 0 0
1182 100 8 -1.05 2.164343 7.602603999999999 -31.57842199999999 0 0 0
1143 100 8 -1.05 4.358012999999998 1.3162749999999996 -31.57842199999999 0 0 0
1181 0 8 -1.05 2.164343 5.556274999999998 -33.624752 0 0 0
1139 100 8 -1.05 2.238013 3.4362749999999997 -31.504751999999996 0 0 0
1138 0 8 -1.05 2.238013 1.242605000000001 -33.698421999999994 0 0 0
1136 0 8 -1.05 0.04434300000000149 3.4362749999999997 -33.698421999999994 0 0 0
1135 100 8 -1.05 0.04434300000000149 1.242605000000001 -31.504751999999996 0 0 0
1222 0 8 -1.05 2.238013 9.722605 -33.698421999999994 0 0 0
1221 0 7 1.575 1.1411780000000002 10.81944 -32.601586999999995 0 0 0
1225 0 7 1.575 4.321177999999998 9.75944 -33.661587 0 0 0
1226 100 7 1.575 4.321177999999998 11.87944 -31.541586999999993 0 0 0
1231 100 6 1.05 6.441177999999998 9.75944 -31.541586999999993 0 0 0
1232 0 6 1.05 6.441177999999998 11.87944 -33.661587 0 0 0
1229 0 8 -1.05 6.404341999999999 9.796275 -33.624752 0 0 0
1230 100 8 -1.05 6.404341999999999 11.842605 -31.57842199999999 0 0 0
1228 0 8 -1.05 4.358012999999998 11.842605 -33.624752 0 0 0
1227 100 8 -1.05 4.358012999999998 9.796275 -31.57842199999999 0 0 0
1223 100 8 -1.05 2.238013 11.916275 -31.504751999999996 0 0 0
1219 100 8 -1.05 0.04434300000000149 9.722605 -31.504751999999996 0 0 0
1220 0 8 -1.05 0.04434300000000149 11.916275 -33.698421999999994 0 0 0
879 0 7 1.575 7.5011779999999995 0.21943999999999877 -34.721587 0 0 0
1140 0 7 1.575 3.261178 0.21943999999999877 -30.48158699999999 0 0 0
1150 0 8 -1.05 8.524343 3.4362749999999997 -33.698421999999994 0 0 0
1149 100 8 -1.05 8.524343 1.242605000000001 -31.504751999999996 0 0 0
930 0 7 1.575 11.741178000000001 4.45944 -34.721587 0 0 0
1151 0 7 1.575 9.621178 2.3394399999999997 -32.601586999999995 0 0 0
1238 0 7 1.575 11.741178000000001 8.69944 -30.48158699999999 0 0 0
1197 100 7 1.575 10.681178000000001 5.519439999999998 -31.541586999999993 0 0 0
1192 100 7 1.575 8.561178 7.639439999999998 -31.541586999999993 0 0 0
1191 0 6 1.05 8.561178 5.519439999999998 -33.661587 0 0 0
1198 0 6 1.05 10.681178000000001 7.639439999999998 -33.661587 0 0 0
1193 100 8 -1.05 8.598013 5.556274999999998 -31.57842199999999 0 0 0
1194 0 8 -1.05 8.598013 7.602603999999999 -33.624752 0 0 0
1196 100 8 -1.05 10.644343000000001 7.602603999999999 -31.57842199999999 0 0 0
1195 0 8 -1.05 10.644343000000001 5.556274999999998 -33.624752 0 0 0
1153 100 8 -1.05 10.718013000000001 3.4362749999999997 -31.504751999999996 0 0 0
1152 0 8 -1.05 10.718013000000001 1.242605000000001 -33.698421999999994 0 0 0
1233 100 8 -1.05 8.524343 9.722605 -31.504751999999996 0 0 0
1234 0 8 -1.05 8.524343 11.916275 -33.698421999999994 0 0 0
1236 0 8 -1.05 10.718013000000001 9.722605 -33.698421999999994 0 0 0
1235 0 7 1.575 9.621178 10.81944 -32.601586999999995 0 0 0
1237 100 8 -1.05 10.718013000000001 11.916275 -31.504751999999996 0 0 0
1154 0 7 1.575 11.741178000000001 0.21943999999999877 -30.48158699999999 0 0 0
1395 101 7 1.575 2.201178 3.39944 -29.421586999999988 0 0 0
1457 101 7 1.575 6.441177999999998 7.639439999999998 -29.421586999999988 0 0 0
1388 101 7 1.575 0.081178 1.2794399999999997 -29.421586999999988 0 0 0
1450 101 7 1.575 4.321177999999998 5.519439999999998 -29.421586999999988 0 0 0
1398 101 8 -1.05 4.284343 3.4362749999999997 -29.458421999999985 0 0 0
1453 101 8 -1.05 4.358012999999998 7.602603999999999 -29.38475199999999 0 0 0
1392 101 8 -1.05 2.164343 1.3162749999999996 -29.38475199999999 0 0 0
1446 101 8 -1.05 2.238013 5.4826049999999995 -29.458421999999985 0 0 0
1454 101 8 -1.05 6.404341999999999 5.556274999999998 -29.38475199999999 0 0 0
1391 101 8 -1.05 0.118013 3.362605 -29.38475199999999 0 0 0
1402 101 8 -1.05 6.478012999999998 1.242605000000001 -29.458421999999985 0 0 0
1442 101 8 -1.05 0.04434300000000149 7.676274999999998 -29.458421999999985 0 0 0
1512 3 7 1.575 7.5011779999999995 8.69944 -26.24158699999998 0 0 0
1400 3 7 1.575 5.381177999999999 2.3394399999999997 -28.361586999999986 0 0 0
1444 3 7 1.575 1.1411780000000002 6.579439999999999 -28.361586999999986 0 0 0
1448 3 7 1.575 3.261178 4.45944 -26.24158699999998 0 0 0
1456 102 6 1.05 6.441177999999998 5.519439999999998 -27.301586999999984 0 0 0
1389 102 6 1.05 0.081178 3.39944 -27.301586999999984 0 0 0
1451 102 6 1.05 4.321177999999998 7.639439999999998 -27.301586999999984 0 0 0
1394 102 6 1.05 2.201178 1.2794399999999997 -27.301586999999984 0 0 0
1393 102 8 -1.05 2.164343 3.362605 -27.338422999999977 0 0 0
1452 102 8 -1.05 4.358012999999998 5.556274999999998 -27.338422999999977 0 0 0
1447 102 8 -1.05 2.238013 7.676274999999998 -27.264751999999987 0 0 0
1390 102 8 -1.05 0.118013 1.3162749999999996 -27.338422999999977 0 0 0
1403 102 8 -1.05 6.478012999999998 3.4362749999999997 -27.264751999999987 0 0 0
1455 102 8 -1.05 6.404341999999999 7.602603999999999 -27.338422999999977 0 0 0
1397 102 8 -1.05 4.284343 1.242605000000001 -27.264751999999987 0 0 0
1441 102 8 -1.05 0.04434300000000149 5.4826049999999995 -27.264751999999987 0 0 0
1510 101 8 -1.05 6.478012999999998 9.722605 -29.458421999999985 0 0 0
1503 101 7 1.575 2.201178 11.87944 -29.421586999999988 0 0 0
1496 101 7 1.575 0.081178 9.75944 -29.421586999999988 0 0 0
1506 101 8 -1.05 4.284343 11.916275 -29.458421999999985 0 0 0
1500 101 8 -1.05 2.164343 9.796275 -29.38475199999999 0 0 0
1499 101 8 -1.05 0.118013 11.842605 -29.38475199999999 0 0 0
1505 102 8 -1.05 4.284343 9.722605 -27.264751999999987 0 0 0
1508 3 7 1.575 5.381177999999999 10.81944 -28.361586999999986 0 0 0
1497 102 7 1.575 0.081178 11.87944 -27.301586999999984 0 0 0
1502 102 6 1.05 2.201178 9.75944 -27.301586999999984 0 0 0
1501 102 8 -1.05 2.164343 11.842605 -27.338422999999977 0 0 0
1498 102 8 -1.05 0.118013 9.796275 -27.338422999999977 0 0 0
1511 102 8 -1.05 6.478012999999998 11.916275 -27.264751999999987 0 0 0
1404 3 7 1.575 7.5011779999999995 0.21943999999999877 -26.24158699999998 0 0 0
1460 101 8 -1.05 8.524343 7.676274999999998 -29.458421999999985 0 0 0
1413 101 7 1.575 10.681178000000001 3.39944 -29.421586999999988 0 0 0
1406 101 7 1.575 8.561178 1.2794399999999997 -29.421586999999988 0 0 0
1410 101 8 -1.05 10.644343000000001 1.3162749999999996 -29.38475199999999 0 0 0
1464 101 8 -1.05 10.718013000000001 5.4826049999999995 -29.458421999999985 0 0 0
1409 101 8 -1.05 8.598013 3.362605 -29.38475199999999 0 0 0
1459 102 8 -1.05 8.524343 5.4826049999999995 -27.264751999999987 0 0 0
1462 3 7 1.575 9.621178 6.579439999999999 -28.361586999999986 0 0 0
1466 3 7 1.575 11.741178000000001 4.45944 -26.24158699999998 0 0 0
1407 102 7 1.575 8.561178 3.39944 -27.301586999999984 0 0 0
1412 102 7 1.575 10.681178000000001 1.2794399999999997 -27.301586999999984 0 0 0
1411 102 8 -1.05 10.644343000000001 3.362605 -27.338422999999977 0 0 0
1465 102 8 -1.05 10.718013000000001 7.676274999999998 -27.264751999999987 0 0 0
1408 102 8 -1.05 8.598013 1.3162749999999996 -27.338422999999977 0 0 0
1521 101 7 1.575 10.681178000000001 11.87944 -29.421586999999988 0 0 0
1514 101 7 1.575 8.561178 9.75944 -29.421586999999988 0 0 0
1518 101 8 -1.05 10.644343000000001 9.796275 -29.38475199999999 0 0 0
1517 101 8 -1.05 8.598013 11.842605 -29.38475199999999 0 0 0
1515 102 7 1.575 8.561178 11.87944 -27.301586999999984 0 0 0
1520 102 7 1.575 10.681178000000001 9.75944 -27.301586999999984 0 0 0
1519 102 8 -1.05 10.644343000000001 11.842605 -27.338422999999977 0 0 0
1516 102 8 -1.05 8.598013 9.796275 -27.338422999999977 0 0 0
1734 3 7 1.575 11.741178000000001 0.21943999999999877 -22.001587 0 0 0
1449 0 8 -1.05 4.284343 7.676274999999998 -25.218421999999975 0 0 0
1458 0 8 -1.05 6.478012999999998 5.4826049999999995 -25.218421999999975 0 0 0
1714 3 7 1.575 1.1411780000000002 2.3394399999999997 -24.121586999999977 0 0 0
1814 3 7 1.575 3.261178 8.69944 -22.001587 0 0 0
1774 3 7 1.575 7.5011779999999995 4.45944 -22.001587 0 0 0
1770 3 7 1.575 5.381177999999999 6.579439999999999 -24.121586999999977 0 0 0
1399 4 6 1.05 4.321177999999998 1.2794399999999997 -25.18158699999998 0 0 0
1716 4 6 1.05 2.201178 3.39944 -20.94158699999997 0 0 0
1772 4 6 1.05 6.441177999999998 7.639439999999998 -20.94158699999997 0 0 0
1765 4 6 1.05 2.201178 5.519439999999998 -23.061586999999975 0 0 0
1760 4 6 1.05 0.081178 7.639439999999998 -23.061586999999975 0 0 0
1443 4 7 1.575 0.081178 5.519439999999998 -25.18158699999998 0 0 0
1720 4 7 1.575 4.321177999999998 3.39944 -23.061586999999975 0 0 0
1725 4 6 1.05 6.441177999999998 1.2794399999999997 -23.061586999999975 0 0 0
1712 4 7 1.575 0.081178 1.2794399999999997 -20.94158699999997 0 0 0
1401 4 7 1.575 6.441177999999998 3.39944 -25.18158699999998 0 0 0
1445 4 7 1.575 2.201178 7.639439999999998 -25.18158699999998 0 0 0
1768 4 7 1.575 4.321177999999998 5.519439999999998 -20.94158699999997 0 0 0
1723 0 8 -1.05 6.404341999999999 1.3162749999999996 -25.144751999999983 0 0 0
1719 0 8 -1.05 4.284343 3.4362749999999997 -20.978421999999995 0 0 0
1769 0 8 -1.05 4.358012999999998 7.602603999999999 -20.904751999999974 0 0 0
1761 0 8 -1.05 0.118013 5.556274999999998 -23.09842199999997 0 0 0
1773 0 8 -1.05 6.478012999999998 7.676274999999998 -23.024751999999978 0 0 0
1762 0 8 -1.05 0.118013 7.602603999999999 -25.144751999999983 0 0 0
1767 0 8 -1.05 4.284343 5.4826049999999995 -23.024751999999978 0 0 0
1715 0 8 -1.05 2.164343 1.3162749999999996 -20.904751999999974 0 0 0