LAMMPS (17 Feb 2022)
variable layer index 21
variable type string fa_tet_full_qeq
variable rand equal round(random(0,1e7,452345))
variable temp index 50000 45000 40500 36450 32805 29524 26571 23913 21521 19368 17431 15687 14118 12706 11435 10291 9261 8334 7500 6750 6075 5467 4920 4428 3985 3586 3227 2904 2613 2351 2115 1903 1712 1540 1386 1247 1122 1009 908 817 735 661 594 534 480 432 388 349 314 282 253 227 204 183 164 147 132 118 106 95 85 76 68 61 54 48 43 38 34 30 27 24 21 18 16 14 12 10 9 8 7 6 5 4 3 2 1

variable nsteps equal 972  # (nfe*nfe)/4

include settings.lmp
units              real
atom_style         full
timestep	   0.5
boundary	   p p f

pair_style         lj/cut/coul/long 12.0
bond_style         harmonic
angle_style        harmonic
dihedral_style     fourier
improper_style     cvff
kspace_style       pppm 1.0e-6
kspace_modify      slab 3.0

pair_modify        mix arithmetic
special_bonds      amber
neighbor           2.0 bin
neigh_modify       every 1 delay 0 check yes

read_data 001-dbt_3x3_${layer}L_${type}.data
read_data 001-dbt_3x3_21L_${type}.data
read_data 001-dbt_3x3_21L_fa_tet_full_qeq.data
Reading data file ...
  orthogonal box = (0 0 -64.778423) to (25.44 25.44 32.908)
  1 by 1 by 4 MPI processor grid
  reading atoms ...
  4356 atoms
  reading velocities ...
  4356 velocities
  scanning bonds ...
  3 = max bonds/atom
  scanning angles ...
  3 = max angles/atom
  scanning impropers ...
  1 = max impropers/atom
  reading bonds ...
  72 bonds
  reading angles ...
  108 angles
  reading impropers ...
  18 impropers
Finding 1-2 1-3 1-4 neighbors ...
  special bond factors lj:    0        0        0.5     
  special bond factors coul:  0        0        0.8333333333333334
     3 = max # of 1-2 neighbors
     2 = max # of 1-3 neighbors
     2 = max # of 1-4 neighbors
     3 = max # of special neighbors
  special bonds CPU = 0.001 seconds
  read_data CPU = 0.034 seconds

include ff_formic_acid_fe304.param
#####################-----formic_acid-----######################################

mass  1   12.011   # Sp2 C carbonyl group
mass  2    1.008   # H bonded to non-sp3 carbon with 2 electrwd. group
mass  3   15.9994  # Oxygen with one connected atom
mass  4   15.9994  # Oxygen in hydroxyl group
mass  5    1.008   # Hydroxyl group

pair_coeff  1  1   0.0988  3.31521230994  # c
pair_coeff  2  2   0.0161  2.44729877873  # h5
pair_coeff  3  3   0.1463  3.04812087425  # o
pair_coeff  4  4   0.0930  3.24287133403  # oh
pair_coeff  5  5   0.0047  0.537924646013 # ho

bond_coeff  1  361.80  1.105  # c-h5
bond_coeff  2  652.57  1.218  # c=o
bond_coeff  3  383.13  1.351  # c-oh
bond_coeff  4  563.51  0.973  # o-h

angle_coeff  1   51.617  106.550  # c-oh-ho
angle_coeff  2   65.930  123.650  # h5-c=o
angle_coeff  3   65.262  109.490  # h5-c-oh
angle_coeff  4  115.745  122.100  # o=c-oh

dihedral_coeff  1  1  2.3  2  180.0               # h5-c-oh-ho
dihedral_coeff  2  2  2.3  2  180.0  1.9  1  0.0  # o=c-oh-ho

                              #  h5
                              #  |
improper_coeff  1  10.5 -1 2  #  c
                              # / \
                              # o  oh

#####################-----formate-----###########################################

angle_coeff  5   118.817 130.250  # o-c-o

                              #  h5
                              #  |
improper_coeff  2  10.5 -1 2  #  c
                              # / \
                              # o  o

#####################-----magnetite-----#########################################

mass  6   55.845   # Iron(II)
mass  7   55.845   # Iron(III)
mass  8   15.9994  # Bridging oxygen
mass  9   15.9994  # Hydroxyl oxygen
mass  10   1.008   # Hydroxyl hydrogen

pair_coeff  6  6   9.0298e-07  4.90620  # fe2
pair_coeff  7  7   9.0298e-07  4.90620  # fe3
pair_coeff  8  8   0.1554      3.16554  # ob
pair_coeff  9  9   0.1554      3.16554  # oh
pair_coeff  10 10  0.0         0.0      # ho

bond_coeff  5  554.1349  1.0   # oh-ho
bond_coeff  6    0.0     2.08  # fe-oh (dummy bond)

angle_coeff  6   30.0  109.470  # fe-oh-ho

##################################################################################

group Felayer molecule 101 100 102
324 atoms in group Felayer
group Fe type 6 7
1818 atoms in group Fe
group swpFe intersect Fe Felayer
108 atoms in group swpFe

label minimize_temp

  variable ftemp equal v_temp

  # Electrostatic relaxation
  fix swp swpFe atom/swap 1 1 ${rand} ${temp} ke no types 6 7
  fix swp swpFe atom/swap 1 1 855824 ${temp} ke no types 6 7
  fix swp swpFe atom/swap 1 1 855824 50000 ke no types 6 7
  thermo 100
  thermo_style custom step v_ftemp pe f_swp[1] f_swp[2]
  run ${nsteps}
  run 972
WARNING: No fixes with time integration, atoms won't move (../verlet.cpp:60)
PPPM initialization ...
  using 12-bit tables for long-range coulomb (../kspace.cpp:340)
  G vector (1/distance) = 0.29499882
  grid = 45 45 250
  stencil order = 5
  estimated absolute RMS force accuracy = 0.00038505019
  estimated relative force accuracy = 1.1595672e-06
  using double precision KISS FFT
  3d grid and FFT values/proc = 554040 378675
  generated 45 of 45 mixed pair_coeff terms from arithmetic mixing rule
Neighbor list info ...
  update every 1 steps, delay 0 steps, check yes
  max neighbors/atom: 2000, page size: 100000
  master list distance cutoff = 14
  ghost atom cutoff = 14
  binsize = 7, bins = 4 4 14
  1 neighbor lists, perpetual/occasional/extra = 1 0 0
  (1) pair lj/cut/coul/long, perpetual
      attributes: half, newton on
      pair build: half/bin/newton
      stencil: half/bin/3d
      bin: standard
Per MPI rank memory allocation (min/avg/max) = 24.36 | 35.12 | 63.74 Mbytes
Step v_ftemp PotEng f_swp[1] f_swp[2] 
       0        50000   -790979.14            0            0 
     100        50000   -791538.46          100           73 
     200        50000   -791596.59          200          145 
     300        50000   -790768.62          300          218 
     400        50000   -791193.92          400          287 
     500        50000   -791047.63          500          362 
     600        50000   -791418.51          600          423 
     700        50000    -791551.6          700          494 
     800        50000   -791203.05          800          573 
     900        50000   -791505.23          900          649 
     972        50000   -791408.03          972          698 
Loop time of 282.166 on 4 procs for 972 steps with 4356 atoms

Performance: 0.149 ns/day, 161.275 hours/ns, 3.445 timesteps/s
92.1% CPU use with 4 MPI tasks x no OpenMP threads

MPI task timing breakdown:
Section |  min time  |  avg time  |  max time  |%varavg| %total
---------------------------------------------------------------
Pair    | 3.2621     | 7.7628     | 11.47      | 124.3 |  2.75
Bond    | 0.0016594  | 0.0048204  | 0.013594   |   7.3 |  0.00
Kspace  | 67.412     | 71.116     | 75.622     |  41.1 | 25.20
Neigh   | 18.156     | 18.197     | 18.256     |   0.9 |  6.45
Comm    | 0.54753    | 0.61067    | 0.65557    |   5.3 |  0.22
Output  | 0.00023432 | 0.00055615 | 0.0013495  |   0.0 |  0.00
Modify  | 184.43     | 184.44     | 184.47     |   0.1 | 65.37
Other   |            | 0.02988    |            |       |  0.01

Nlocal:           1089 ave        1494 max         702 min
Histogram: 2 0 0 0 0 0 0 0 1 1
Nghost:           9053 ave       12006 max        5884 min
Histogram: 2 0 0 0 0 0 0 0 0 2
Neighs:         542692 ave      798273 max      221438 min
Histogram: 1 0 1 0 0 0 0 0 0 2

Total # of neighbors = 2170766
Ave neighs/atom = 498.3393
Ave special neighs/atom = 0.05785124
Neighbor list builds = 1944
Dangerous builds = 0

  unfix swp
  thermo_style custom step temp pe

next temp
jump SELF minimize_temp

  variable ftemp equal v_temp

  # Electrostatic relaxation
  fix swp swpFe atom/swap 1 1 ${rand} ${temp} ke no types 6 7
  fix swp swpFe atom/swap 1 1 710414 ${temp} ke no types 6 7
  fix swp swpFe atom/swap 1 1 710414 45000 ke no types 6 7
  thermo 100
  thermo_style custom step v_ftemp pe f_swp[1] f_swp[2]
  run ${nsteps}
  run 972
WARNING: No fixes with time integration, atoms won't move (../verlet.cpp:60)
PPPM initialization ...
  using 12-bit tables for long-range coulomb (../kspace.cpp:340)
  G vector (1/distance) = 0.29499882
  grid = 45 45 250
  stencil order = 5
  estimated absolute RMS force accuracy = 0.00038505019
  estimated relative force accuracy = 1.1595672e-06
  using double precision KISS FFT
  3d grid and FFT values/proc = 554040 378675
  generated 45 of 45 mixed pair_coeff terms from arithmetic mixing rule
Per MPI rank memory allocation (min/avg/max) = 24.36 | 35.12 | 63.74 Mbytes
Step v_ftemp PotEng f_swp[1] f_swp[2] 
     972        45000   -791408.03            0            0 
    1000        45000    -791168.3           28           17 
    1100        45000   -791743.19          128           92 
    1200        45000   -791345.37          228          163 
    1300        45000   -791526.26          328          238 
    1400        45000   -791759.64          428          302 
    1500        45000   -791384.73          528          374 
    1600        45000   -791605.99          628          448 
    1700        45000   -791324.69          728          516 
    1800        45000   -791532.14          828          588 
    1900        45000   -791592.84          928          660 
    1944        45000   -791594.46          972          691 
Loop time of 277.184 on 4 procs for 972 steps with 4356 atoms

Performance: 0.151 ns/day, 158.427 hours/ns, 3.507 timesteps/s
93.8% CPU use with 4 MPI tasks x no OpenMP threads

MPI task timing breakdown:
Section |  min time  |  avg time  |  max time  |%varavg| %total
---------------------------------------------------------------
Pair    | 3.0987     | 7.4328     | 10.938     | 122.0 |  2.68
Bond    | 0.0014471  | 0.0041728  | 0.011859   |   6.9 |  0.00
Kspace  | 66.194     | 69.702     | 74.035     |  39.9 | 25.15
Neigh   | 16.836     | 16.865     | 16.909     |   0.7 |  6.08
Comm    | 0.46553    | 0.52391    | 0.55778    |   5.2 |  0.19
Output  | 0.00021779 | 0.00051135 | 0.0012311  |   0.0 |  0.00
Modify  | 182.62     | 182.63     | 182.64     |   0.1 | 65.89
Other   |            | 0.02711    |            |       |  0.01

Nlocal:           1089 ave        1494 max         702 min
Histogram: 2 0 0 0 0 0 0 0 1 1
Nghost:           9053 ave       12006 max        5884 min
Histogram: 2 0 0 0 0 0 0 0 0 2
Neighs:         542692 ave      798273 max      221438 min
Histogram: 1 0 1 0 0 0 0 0 0 2

Total # of neighbors = 2170766
Ave neighs/atom = 498.3393
Ave special neighs/atom = 0.05785124
Neighbor list builds = 1944
Dangerous builds = 0

  unfix swp
  thermo_style custom step temp pe

next temp
jump SELF minimize_temp

  variable ftemp equal v_temp

  # Electrostatic relaxation
  fix swp swpFe atom/swap 1 1 ${rand} ${temp} ke no types 6 7
  fix swp swpFe atom/swap 1 1 755762 ${temp} ke no types 6 7
  fix swp swpFe atom/swap 1 1 755762 40500 ke no types 6 7
  thermo 100
  thermo_style custom step v_ftemp pe f_swp[1] f_swp[2]
  run ${nsteps}
  run 972
WARNING: No fixes with time integration, atoms won't move (../verlet.cpp:60)
PPPM initialization ...
  using 12-bit tables for long-range coulomb (../kspace.cpp:340)
  G vector (1/distance) = 0.29499882
  grid = 45 45 250
  stencil order = 5
  estimated absolute RMS force accuracy = 0.00038505019
  estimated relative force accuracy = 1.1595672e-06
  using double precision KISS FFT
  3d grid and FFT values/proc = 554040 378675
  generated 45 of 45 mixed pair_coeff terms from arithmetic mixing rule
Per MPI rank memory allocation (min/avg/max) = 24.36 | 35.12 | 63.74 Mbytes
Step v_ftemp PotEng f_swp[1] f_swp[2] 
    1944        40500   -791594.46            0            0 
    2000        40500   -791846.38           56           40 
    2100        40500   -791489.24          156          100 
    2200        40500   -791473.07          256          170 
    2300        40500   -791585.74          356          235 
    2400        40500   -791580.85          456          302 
    2500        40500   -791353.38          556          367 
    2600        40500   -792042.26          656          431 
    2700        40500   -791618.26          756          497 
    2800        40500   -791493.33          856          564 
    2900        40500   -791565.13          956          630 
    2916        40500   -791561.82          972          638 
Loop time of 268.67 on 4 procs for 972 steps with 4356 atoms

Performance: 0.156 ns/day, 153.561 hours/ns, 3.618 timesteps/s
93.9% CPU use with 4 MPI tasks x no OpenMP threads

MPI task timing breakdown:
Section |  min time  |  avg time  |  max time  |%varavg| %total
---------------------------------------------------------------
Pair    | 3.3097     | 7.7481     | 11.409     | 123.7 |  2.88
Bond    | 0.0019516  | 0.0059949  | 0.014189   |   6.3 |  0.00
Kspace  | 63.908     | 67.574     | 72.012     |  41.9 | 25.15
Neigh   | 17.051     | 17.076     | 17.111     |   0.6 |  6.36
Comm    | 0.39098    | 0.43685    | 0.46622    |   4.6 |  0.16
Output  | 0.00028491 | 0.00065904 | 0.0016457  |   0.0 |  0.00
Modify  | 175.79     | 175.8      | 175.81     |   0.1 | 65.43
Other   |            | 0.0307     |            |       |  0.01

Nlocal:           1089 ave        1494 max         702 min
Histogram: 2 0 0 0 0 0 0 0 1 1
Nghost:           9053 ave       12006 max        5884 min
Histogram: 2 0 0 0 0 0 0 0 0 2
Neighs:         542692 ave      798273 max      221438 min
Histogram: 1 0 1 0 0 0 0 0 0 2

Total # of neighbors = 2170766
Ave neighs/atom = 498.3393
Ave special neighs/atom = 0.05785124
Neighbor list builds = 1944
Dangerous builds = 0

  unfix swp
  thermo_style custom step temp pe

next temp
jump SELF minimize_temp

  variable ftemp equal v_temp

  # Electrostatic relaxation
  fix swp swpFe atom/swap 1 1 ${rand} ${temp} ke no types 6 7
  fix swp swpFe atom/swap 1 1 4574249 ${temp} ke no types 6 7
  fix swp swpFe atom/swap 1 1 4574249 36450 ke no types 6 7
  thermo 100
  thermo_style custom step v_ftemp pe f_swp[1] f_swp[2]
  run ${nsteps}
  run 972
WARNING: No fixes with time integration, atoms won't move (../verlet.cpp:60)
PPPM initialization ...
  using 12-bit tables for long-range coulomb (../kspace.cpp:340)
  G vector (1/distance) = 0.29499882
  grid = 45 45 250
  stencil order = 5
  estimated absolute RMS force accuracy = 0.00038505019
  estimated relative force accuracy = 1.1595672e-06
  using double precision KISS FFT
  3d grid and FFT values/proc = 554040 378675
  generated 45 of 45 mixed pair_coeff terms from arithmetic mixing rule
Per MPI rank memory allocation (min/avg/max) = 24.36 | 35.12 | 63.74 Mbytes
Step v_ftemp PotEng f_swp[1] f_swp[2] 
    2916        36450   -791561.82            0            0 
    3000        36450   -791856.64           84           50 
    3100        36450   -791547.76          184          109 
    3200        36450   -791299.53          284          170 
    3300        36450   -791613.36          384          230 
    3400        36450   -791266.91          484          295 
    3500        36450   -791565.21          584          363 
    3600        36450   -791635.69          684          427 
    3700        36450   -791448.37          784          487 
    3800        36450   -791708.52          884          544 
    3888        36450   -791795.12          972          599 
Loop time of 272.66 on 4 procs for 972 steps with 4356 atoms

Performance: 0.154 ns/day, 155.841 hours/ns, 3.565 timesteps/s
94.0% CPU use with 4 MPI tasks x no OpenMP threads

MPI task timing breakdown:
Section |  min time  |  avg time  |  max time  |%varavg| %total
---------------------------------------------------------------
Pair    | 3.1704     | 7.5506     | 11.099     | 122.4 |  2.77
Bond    | 0.0016762  | 0.0047202  | 0.012908   |   6.9 |  0.00
Kspace  | 64.899     | 68.453     | 72.832     |  40.7 | 25.11
Neigh   | 16.866     | 16.893     | 16.934     |   0.7 |  6.20
Comm    | 0.43946    | 0.49273    | 0.5233     |   4.9 |  0.18
Output  | 0.00021303 | 0.00053325 | 0.0013288  |   0.0 |  0.00
Modify  | 179.23     | 179.24     | 179.25     |   0.1 | 65.74
Other   |            | 0.02835    |            |       |  0.01

Nlocal:           1089 ave        1494 max         702 min
Histogram: 2 0 0 0 0 0 0 0 1 1
Nghost:           9053 ave       12006 max        5884 min
Histogram: 2 0 0 0 0 0 0 0 0 2
Neighs:         542692 ave      798273 max      221438 min
Histogram: 1 0 1 0 0 0 0 0 0 2

Total # of neighbors = 2170766
Ave neighs/atom = 498.3393
Ave special neighs/atom = 0.05785124
Neighbor list builds = 1944
Dangerous builds = 0

  unfix swp
  thermo_style custom step temp pe

next temp
jump SELF minimize_temp

  variable ftemp equal v_temp

  # Electrostatic relaxation
  fix swp swpFe atom/swap 1 1 ${rand} ${temp} ke no types 6 7
  fix swp swpFe atom/swap 1 1 5979850 ${temp} ke no types 6 7
  fix swp swpFe atom/swap 1 1 5979850 32805 ke no types 6 7
  thermo 100
  thermo_style custom step v_ftemp pe f_swp[1] f_swp[2]
  run ${nsteps}
  run 972
WARNING: No fixes with time integration, atoms won't move (../verlet.cpp:60)
PPPM initialization ...
  using 12-bit tables for long-range coulomb (../kspace.cpp:340)
  G vector (1/distance) = 0.29499882
  grid = 45 45 250
  stencil order = 5
  estimated absolute RMS force accuracy = 0.00038505019
  estimated relative force accuracy = 1.1595672e-06
  using double precision KISS FFT
  3d grid and FFT values/proc = 554040 378675
  generated 45 of 45 mixed pair_coeff terms from arithmetic mixing rule
Per MPI rank memory allocation (min/avg/max) = 24.36 | 35.12 | 63.74 Mbytes
Step v_ftemp PotEng f_swp[1] f_swp[2] 
    3888        32805   -791795.12            0            0 
    3900        32805   -791797.12           12            5 
    4000        32805   -791319.37          112           53 
    4100        32805   -791867.02          212          104 
    4200        32805   -791549.39          312          165 
    4300        32805    -791566.4          412          227 
    4400        32805   -791298.34          512          288 
    4500        32805   -791861.95          612          343 
    4600        32805    -791674.6          712          411 
    4700        32805   -791671.98          812          471 
    4800        32805    -791521.2          912          528 
    4860        32805    -791639.1          972          565 
Loop time of 263.939 on 4 procs for 972 steps with 4356 atoms

Performance: 0.159 ns/day, 150.857 hours/ns, 3.683 timesteps/s
94.4% CPU use with 4 MPI tasks x no OpenMP threads

MPI task timing breakdown:
Section |  min time  |  avg time  |  max time  |%varavg| %total
---------------------------------------------------------------
Pair    | 3.2208     | 7.6246     | 11.163     | 122.3 |  2.89
Bond    | 0.0013175  | 0.0048831  | 0.013708   |   7.3 |  0.00
Kspace  | 61.792     | 65.332     | 69.734     |  41.8 | 24.75
Neigh   | 16.856     | 16.88      | 16.916     |   0.6 |  6.40
Comm    | 0.39982    | 0.44711    | 0.47475    |   4.6 |  0.17
Output  | 0.00020749 | 0.00048834 | 0.001182   |   0.0 |  0.00
Modify  | 173.61     | 173.62     | 173.63     |   0.1 | 65.78
Other   |            | 0.02878    |            |       |  0.01

Nlocal:           1089 ave        1494 max         702 min
Histogram: 2 0 0 0 0 0 0 0 1 1
Nghost:           9053 ave       12006 max        5884 min
Histogram: 2 0 0 0 0 0 0 0 0 2
Neighs:         542692 ave      798273 max      221438 min
Histogram: 1 0 1 0 0 0 0 0 0 2

Total # of neighbors = 2170766
Ave neighs/atom = 498.3393
Ave special neighs/atom = 0.05785124
Neighbor list builds = 1944
Dangerous builds = 0

  unfix swp
  thermo_style custom step temp pe

next temp
jump SELF minimize_temp

  variable ftemp equal v_temp

  # Electrostatic relaxation
  fix swp swpFe atom/swap 1 1 ${rand} ${temp} ke no types 6 7
  fix swp swpFe atom/swap 1 1 2707118 ${temp} ke no types 6 7
  fix swp swpFe atom/swap 1 1 2707118 29524 ke no types 6 7
  thermo 100
  thermo_style custom step v_ftemp pe f_swp[1] f_swp[2]
  run ${nsteps}
  run 972
WARNING: No fixes with time integration, atoms won't move (../verlet.cpp:60)
PPPM initialization ...
  using 12-bit tables for long-range coulomb (../kspace.cpp:340)
  G vector (1/distance) = 0.29499882
  grid = 45 45 250
  stencil order = 5
  estimated absolute RMS force accuracy = 0.00038505019
  estimated relative force accuracy = 1.1595672e-06
  using double precision KISS FFT
  3d grid and FFT values/proc = 554040 378675
  generated 45 of 45 mixed pair_coeff terms from arithmetic mixing rule
Per MPI rank memory allocation (min/avg/max) = 24.36 | 35.12 | 63.74 Mbytes
Step v_ftemp PotEng f_swp[1] f_swp[2] 
    4860        29524    -791639.1            0            0 
    4900        29524   -791845.56           40           21 
    5000        29524   -791830.71          140           71 
    5100        29524   -791664.05          240          130 
    5200        29524   -791551.49          340          187 
    5300        29524   -791809.98          440          243 
    5400        29524   -791747.65          540          301 
    5500        29524   -791705.61          640          359 
    5600        29524   -791567.49          740          417 
    5700        29524   -791783.72          840          476 
    5800        29524   -791467.19          940          534 
    5832        29524   -791379.59          972          554 
Loop time of 265.464 on 4 procs for 972 steps with 4356 atoms

Performance: 0.158 ns/day, 151.728 hours/ns, 3.662 timesteps/s
94.2% CPU use with 4 MPI tasks x no OpenMP threads

MPI task timing breakdown:
Section |  min time  |  avg time  |  max time  |%varavg| %total
---------------------------------------------------------------
Pair    | 3.1936     | 7.547      | 11.015     | 121.5 |  2.84
Bond    | 0.0012372  | 0.0044853  | 0.012488   |   6.9 |  0.00
Kspace  | 63.073     | 66.543     | 70.895     |  40.9 | 25.07
Neigh   | 16.765     | 16.789     | 16.824     |   0.6 |  6.32
Comm    | 0.39899    | 0.44531    | 0.47305    |   4.5 |  0.17
Output  | 0.00020403 | 0.00045412 | 0.0010657  |   0.0 |  0.00
Modify  | 174.1      | 174.11     | 174.12     |   0.1 | 65.59
Other   |            | 0.02733    |            |       |  0.01

Nlocal:           1089 ave        1494 max         702 min
Histogram: 2 0 0 0 0 0 0 0 1 1
Nghost:           9053 ave       12006 max        5884 min
Histogram: 2 0 0 0 0 0 0 0 0 2
Neighs:         542692 ave      798273 max      221438 min
Histogram: 1 0 1 0 0 0 0 0 0 2

Total # of neighbors = 2170766
Ave neighs/atom = 498.3393
Ave special neighs/atom = 0.05785124
Neighbor list builds = 1944
Dangerous builds = 0

  unfix swp
  thermo_style custom step temp pe

next temp
jump SELF minimize_temp

  variable ftemp equal v_temp

  # Electrostatic relaxation
  fix swp swpFe atom/swap 1 1 ${rand} ${temp} ke no types 6 7
  fix swp swpFe atom/swap 1 1 1165944 ${temp} ke no types 6 7
  fix swp swpFe atom/swap 1 1 1165944 26571 ke no types 6 7
  thermo 100
  thermo_style custom step v_ftemp pe f_swp[1] f_swp[2]
  run ${nsteps}
  run 972
WARNING: No fixes with time integration, atoms won't move (../verlet.cpp:60)
PPPM initialization ...
  using 12-bit tables for long-range coulomb (../kspace.cpp:340)
  G vector (1/distance) = 0.29499882
  grid = 45 45 250
  stencil order = 5
  estimated absolute RMS force accuracy = 0.00038505019
  estimated relative force accuracy = 1.1595672e-06
  using double precision KISS FFT
  3d grid and FFT values/proc = 554040 378675
  generated 45 of 45 mixed pair_coeff terms from arithmetic mixing rule
Per MPI rank memory allocation (min/avg/max) = 24.36 | 35.12 | 63.74 Mbytes
Step v_ftemp PotEng f_swp[1] f_swp[2] 
    5832        26571   -791379.59            0            0 
    5900        26571   -791804.39           68           38 
    6000        26571    -791543.4          168           93 
    6100        26571   -791753.27          268          145 
    6200        26571   -791953.48          368          189 
    6300        26571   -791748.95          468          245 
    6400        26571   -791799.53          568          297 
    6500        26571   -791845.48          668          348 
    6600        26571   -791845.25          768          406 
    6700        26571   -791917.95          868          455 
    6800        26571   -791995.87          968          507 
    6804        26571   -791962.63          972          509 
Loop time of 266.345 on 4 procs for 972 steps with 4356 atoms

Performance: 0.158 ns/day, 152.232 hours/ns, 3.649 timesteps/s
94.6% CPU use with 4 MPI tasks x no OpenMP threads

MPI task timing breakdown:
Section |  min time  |  avg time  |  max time  |%varavg| %total
---------------------------------------------------------------
Pair    | 3.0936     | 7.3845     | 10.854     | 120.6 |  2.77
Bond    | 0.00084561 | 0.0037416  | 0.011054   |   6.9 |  0.00
Kspace  | 63.005     | 66.477     | 70.767     |  40.2 | 24.96
Neigh   | 16.82      | 16.847     | 16.889     |   0.7 |  6.33
Comm    | 0.46486    | 0.52366    | 0.55601    |   5.1 |  0.20
Output  | 0.00023704 | 0.00063726 | 0.0016775  |   0.0 |  0.00
Modify  | 175.07     | 175.08     | 175.1      |   0.1 | 65.74
Other   |            | 0.02667    |            |       |  0.01

Nlocal:           1089 ave        1494 max         702 min
Histogram: 2 0 0 0 0 0 0 0 1 1
Nghost:           9053 ave       12006 max        5884 min
Histogram: 2 0 0 0 0 0 0 0 0 2
Neighs:         542692 ave      798273 max      221438 min
Histogram: 1 0 1 0 0 0 0 0 0 2

Total # of neighbors = 2170766
Ave neighs/atom = 498.3393
Ave special neighs/atom = 0.05785124
Neighbor list builds = 1944
Dangerous builds = 0

  unfix swp
  thermo_style custom step temp pe

next temp
jump SELF minimize_temp

  variable ftemp equal v_temp

  # Electrostatic relaxation
  fix swp swpFe atom/swap 1 1 ${rand} ${temp} ke no types 6 7
  fix swp swpFe atom/swap 1 1 3631288 ${temp} ke no types 6 7
  fix swp swpFe atom/swap 1 1 3631288 23913 ke no types 6 7
  thermo 100
  thermo_style custom step v_ftemp pe f_swp[1] f_swp[2]
  run ${nsteps}
  run 972
WARNING: No fixes with time integration, atoms won't move (../verlet.cpp:60)
PPPM initialization ...
  using 12-bit tables for long-range coulomb (../kspace.cpp:340)
  G vector (1/distance) = 0.29499882
  grid = 45 45 250
  stencil order = 5
  estimated absolute RMS force accuracy = 0.00038505019
  estimated relative force accuracy = 1.1595672e-06
  using double precision KISS FFT
  3d grid and FFT values/proc = 554040 378675
  generated 45 of 45 mixed pair_coeff terms from arithmetic mixing rule
Per MPI rank memory allocation (min/avg/max) = 24.36 | 35.12 | 63.74 Mbytes
Step v_ftemp PotEng f_swp[1] f_swp[2] 
    6804        23913   -791962.63            0            0 
    6900        23913   -791667.45           96           40 
    7000        23913   -791625.16          196          102 
    7100        23913   -791853.09          296          150 
    7200        23913   -791852.79          396          197 
    7300        23913   -791705.47          496          255 
    7400        23913   -791697.27          596          312 
    7500        23913   -791861.26          696          370 
    7600        23913   -791860.45          796          419 
    7700        23913   -791788.88          896          468 
    7776        23913   -791994.05          972          501 
Loop time of 269.711 on 4 procs for 972 steps with 4356 atoms

Performance: 0.156 ns/day, 154.156 hours/ns, 3.604 timesteps/s
94.3% CPU use with 4 MPI tasks x no OpenMP threads

MPI task timing breakdown:
Section |  min time  |  avg time  |  max time  |%varavg| %total
---------------------------------------------------------------
Pair    | 3.1179     | 7.3896     | 10.86      | 120.3 |  2.74
Bond    | 0.0010066  | 0.0038228  | 0.011081   |   6.8 |  0.00
Kspace  | 64.501     | 67.973     | 72.244     |  39.7 | 25.20
Neigh   | 16.692     | 16.718     | 16.755     |   0.6 |  6.20
Comm    | 0.43579    | 0.4873     | 0.51834    |   4.8 |  0.18
Output  | 0.00020811 | 0.00049711 | 0.0012038  |   0.0 |  0.00
Modify  | 177.1      | 177.11     | 177.13     |   0.1 | 65.67
Other   |            | 0.02648    |            |       |  0.01

Nlocal:           1089 ave        1494 max         702 min
Histogram: 2 0 0 0 0 0 0 0 1 1
Nghost:           9053 ave       12006 max        5884 min
Histogram: 2 0 0 0 0 0 0 0 0 2
Neighs:         542692 ave      798273 max      221438 min
Histogram: 1 0 1 0 0 0 0 0 0 2

Total # of neighbors = 2170766
Ave neighs/atom = 498.3393
Ave special neighs/atom = 0.05785124
Neighbor list builds = 1944
Dangerous builds = 0

  unfix swp
  thermo_style custom step temp pe

next temp
jump SELF minimize_temp

  variable ftemp equal v_temp

  # Electrostatic relaxation
  fix swp swpFe atom/swap 1 1 ${rand} ${temp} ke no types 6 7
  fix swp swpFe atom/swap 1 1 7952271 ${temp} ke no types 6 7
  fix swp swpFe atom/swap 1 1 7952271 21521 ke no types 6 7
  thermo 100
  thermo_style custom step v_ftemp pe f_swp[1] f_swp[2]
  run ${nsteps}
  run 972
WARNING: No fixes with time integration, atoms won't move (../verlet.cpp:60)
PPPM initialization ...
  using 12-bit tables for long-range coulomb (../kspace.cpp:340)
  G vector (1/distance) = 0.29499882
  grid = 45 45 250
  stencil order = 5
  estimated absolute RMS force accuracy = 0.00038505019
  estimated relative force accuracy = 1.1595672e-06
  using double precision KISS FFT
  3d grid and FFT values/proc = 554040 378675
  generated 45 of 45 mixed pair_coeff terms from arithmetic mixing rule
Per MPI rank memory allocation (min/avg/max) = 24.36 | 35.12 | 63.74 Mbytes
Step v_ftemp PotEng f_swp[1] f_swp[2] 
    7776        21521   -791994.05            0            0 
    7800        21521   -792062.87           24           16 
    7900        21521   -791885.62          124           54 
    8000        21521   -791757.68          224          105 
    8100        21521   -791908.79          324          155 
    8200        21521   -791621.82          424          208 
    8300        21521   -792058.92          524          249 
    8400        21521   -792020.31          624          294 
    8500        21521   -791909.15          724          348 
    8600        21521   -791888.58          824          390 
    8700        21521    -791892.6          924          433 
    8748        21521   -792115.77          972          456 
Loop time of 266.429 on 4 procs for 972 steps with 4356 atoms

Performance: 0.158 ns/day, 152.280 hours/ns, 3.648 timesteps/s
94.4% CPU use with 4 MPI tasks x no OpenMP threads

MPI task timing breakdown:
Section |  min time  |  avg time  |  max time  |%varavg| %total
---------------------------------------------------------------
Pair    | 3.1456     | 7.5095     | 11.098     | 122.6 |  2.82
Bond    | 0.001274   | 0.0050032  | 0.015032   |   8.2 |  0.00
Kspace  | 64.03      | 67.62      | 71.98      |  40.9 | 25.38
Neigh   | 16.709     | 16.733     | 16.768     |   0.6 |  6.28
Comm    | 0.39975    | 0.44594    | 0.47348    |   4.6 |  0.17
Output  | 0.00022442 | 0.00054464 | 0.0013212  |   0.0 |  0.00
Modify  | 174.08     | 174.09     | 174.1      |   0.1 | 65.34
Other   |            | 0.02489    |            |       |  0.01

Nlocal:           1089 ave        1494 max         702 min
Histogram: 2 0 0 0 0 0 0 0 1 1
Nghost:           9053 ave       12006 max        5884 min
Histogram: 2 0 0 0 0 0 0 0 0 2
Neighs:         542692 ave      798273 max      221438 min
Histogram: 1 0 1 0 0 0 0 0 0 2

Total # of neighbors = 2170766
Ave neighs/atom = 498.3393
Ave special neighs/atom = 0.05785124
Neighbor list builds = 1944
Dangerous builds = 0

  unfix swp
  thermo_style custom step temp pe

next temp
jump SELF minimize_temp

  variable ftemp equal v_temp

  # Electrostatic relaxation
  fix swp swpFe atom/swap 1 1 ${rand} ${temp} ke no types 6 7
  fix swp swpFe atom/swap 1 1 185888 ${temp} ke no types 6 7
  fix swp swpFe atom/swap 1 1 185888 19368 ke no types 6 7
  thermo 100
  thermo_style custom step v_ftemp pe f_swp[1] f_swp[2]
  run ${nsteps}
  run 972
WARNING: No fixes with time integration, atoms won't move (../verlet.cpp:60)
PPPM initialization ...
  using 12-bit tables for long-range coulomb (../kspace.cpp:340)
  G vector (1/distance) = 0.29499882
  grid = 45 45 250
  stencil order = 5
  estimated absolute RMS force accuracy = 0.00038505019
  estimated relative force accuracy = 1.1595672e-06
  using double precision KISS FFT
  3d grid and FFT values/proc = 554040 378675
  generated 45 of 45 mixed pair_coeff terms from arithmetic mixing rule
Per MPI rank memory allocation (min/avg/max) = 24.36 | 35.12 | 63.74 Mbytes
Step v_ftemp PotEng f_swp[1] f_swp[2] 
    8748        19368   -792115.77            0            0 
    8800        19368   -792009.21           52           17 
    8900        19368   -791821.87          152           60 
    9000        19368    -792225.2          252           98 
    9100        19368   -792054.32          352          131 
    9200        19368   -791999.49          452          179 
    9300        19368   -791720.39          552          219 
    9400        19368   -791955.54          652          265 
    9500        19368   -792071.54          752          309 
    9600        19368   -791857.46          852          350 
    9700        19368   -791805.28          952          400 
    9720        19368   -791824.71          972          408 
Loop time of 265.855 on 4 procs for 972 steps with 4356 atoms

Performance: 0.158 ns/day, 151.952 hours/ns, 3.656 timesteps/s
94.1% CPU use with 4 MPI tasks x no OpenMP threads

MPI task timing breakdown:
Section |  min time  |  avg time  |  max time  |%varavg| %total
---------------------------------------------------------------
Pair    | 3.209      | 7.6031     | 11.191     | 122.5 |  2.86
Bond    | 0.0014642  | 0.0047073  | 0.01305    |   7.0 |  0.00
Kspace  | 63.682     | 67.271     | 71.664     |  41.2 | 25.30
Neigh   | 16.739     | 16.762     | 16.796     |   0.6 |  6.31
Comm    | 0.38834    | 0.43379    | 0.46184    |   4.6 |  0.16
Output  | 0.0002375  | 0.0005854  | 0.0014945  |   0.0 |  0.00
Modify  | 173.74     | 173.75     | 173.77     |   0.1 | 65.36
Other   |            | 0.02539    |            |       |  0.01

Nlocal:           1089 ave        1494 max         702 min
Histogram: 2 0 0 0 0 0 0 0 1 1
Nghost:           9053 ave       12006 max        5884 min
Histogram: 2 0 0 0 0 0 0 0 0 2
Neighs:         542692 ave      798273 max      221438 min
Histogram: 1 0 1 0 0 0 0 0 0 2

Total # of neighbors = 2170766
Ave neighs/atom = 498.3393
Ave special neighs/atom = 0.05785124
Neighbor list builds = 1944
Dangerous builds = 0

  unfix swp
  thermo_style custom step temp pe

next temp
jump SELF minimize_temp

  variable ftemp equal v_temp

  # Electrostatic relaxation
  fix swp swpFe atom/swap 1 1 ${rand} ${temp} ke no types 6 7
  fix swp swpFe atom/swap 1 1 7935996 ${temp} ke no types 6 7
  fix swp swpFe atom/swap 1 1 7935996 17431 ke no types 6 7
  thermo 100
  thermo_style custom step v_ftemp pe f_swp[1] f_swp[2]
  run ${nsteps}
  run 972
WARNING: No fixes with time integration, atoms won't move (../verlet.cpp:60)
PPPM initialization ...
  using 12-bit tables for long-range coulomb (../kspace.cpp:340)
  G vector (1/distance) = 0.29499882
  grid = 45 45 250
  stencil order = 5
  estimated absolute RMS force accuracy = 0.00038505019
  estimated relative force accuracy = 1.1595672e-06
  using double precision KISS FFT
  3d grid and FFT values/proc = 554040 378675
  generated 45 of 45 mixed pair_coeff terms from arithmetic mixing rule
Per MPI rank memory allocation (min/avg/max) = 24.36 | 35.12 | 63.74 Mbytes
Step v_ftemp PotEng f_swp[1] f_swp[2] 
    9720        17431   -791824.71            0            0 
    9800        17431   -791861.72           80           29 
    9900        17431   -791877.34          180           78 
   10000        17431   -791858.34          280          137 
   10100        17431    -791958.6          380          183 
   10200        17431   -791977.72          480          212 
   10300        17431   -792051.87          580          257 
   10400        17431   -791610.47          680          308 
   10500        17431   -792093.93          780          356 
   10600        17431   -792121.65          880          384 
   10692        17431    -792108.4          972          420 
Loop time of 266.636 on 4 procs for 972 steps with 4356 atoms

Performance: 0.157 ns/day, 152.398 hours/ns, 3.645 timesteps/s
94.1% CPU use with 4 MPI tasks x no OpenMP threads

MPI task timing breakdown:
Section |  min time  |  avg time  |  max time  |%varavg| %total
---------------------------------------------------------------
Pair    | 3.1449     | 7.4749     | 10.96      | 121.3 |  2.80
Bond    | 0.0012037  | 0.0042864  | 0.012058   |   6.9 |  0.00
Kspace  | 63.252     | 66.739     | 71.068     |  40.6 | 25.03
Neigh   | 16.776     | 16.803     | 16.844     |   0.7 |  6.30
Comm    | 0.42048    | 0.47364    | 0.50507    |   5.0 |  0.18
Output  | 0.00021176 | 0.00051808 | 0.0012807  |   0.0 |  0.00
Modify  | 175.1      | 175.11     | 175.13     |   0.1 | 65.68
Other   |            | 0.02582    |            |       |  0.01

Nlocal:           1089 ave        1494 max         702 min
Histogram: 2 0 0 0 0 0 0 0 1 1
Nghost:           9053 ave       12006 max        5884 min
Histogram: 2 0 0 0 0 0 0 0 0 2
Neighs:         542692 ave      798273 max      221438 min
Histogram: 1 0 1 0 0 0 0 0 0 2

Total # of neighbors = 2170766
Ave neighs/atom = 498.3393
Ave special neighs/atom = 0.05785124
Neighbor list builds = 1944
Dangerous builds = 0

  unfix swp
  thermo_style custom step temp pe

next temp
jump SELF minimize_temp

  variable ftemp equal v_temp

  # Electrostatic relaxation
  fix swp swpFe atom/swap 1 1 ${rand} ${temp} ke no types 6 7
  fix swp swpFe atom/swap 1 1 473855 ${temp} ke no types 6 7
  fix swp swpFe atom/swap 1 1 473855 15687 ke no types 6 7
  thermo 100
  thermo_style custom step v_ftemp pe f_swp[1] f_swp[2]
  run ${nsteps}
  run 972
WARNING: No fixes with time integration, atoms won't move (../verlet.cpp:60)
PPPM initialization ...
  using 12-bit tables for long-range coulomb (../kspace.cpp:340)
  G vector (1/distance) = 0.29499882
  grid = 45 45 250
  stencil order = 5
  estimated absolute RMS force accuracy = 0.00038505019
  estimated relative force accuracy = 1.1595672e-06
  using double precision KISS FFT
  3d grid and FFT values/proc = 554040 378675
  generated 45 of 45 mixed pair_coeff terms from arithmetic mixing rule
Per MPI rank memory allocation (min/avg/max) = 24.36 | 35.12 | 63.74 Mbytes
Step v_ftemp PotEng f_swp[1] f_swp[2] 
   10692        15687    -792108.4            0            0 
   10700        15687   -792056.11            8            2 
   10800        15687   -791897.73          108           37 
   10900        15687   -791956.84          208           70 
   11000        15687   -792159.34          308          109 
   11100        15687    -792064.7          408          144 
   11200        15687   -792165.31          508          185 
   11300        15687   -792006.62          608          217 
   11400        15687   -792152.54          708          255 
   11500        15687    -792149.8          808          289 
   11600        15687    -791988.5          908          324 
   11664        15687   -792154.55          972          349 
Loop time of 266.754 on 4 procs for 972 steps with 4356 atoms

Performance: 0.157 ns/day, 152.466 hours/ns, 3.644 timesteps/s
94.2% CPU use with 4 MPI tasks x no OpenMP threads

MPI task timing breakdown:
Section |  min time  |  avg time  |  max time  |%varavg| %total
---------------------------------------------------------------
Pair    | 3.1727     | 7.5699     | 11.203     | 122.6 |  2.84
Bond    | 0.0016949  | 0.0045953  | 0.012496   |   6.7 |  0.00
Kspace  | 63.283     | 66.916     | 71.312     |  41.2 | 25.09
Neigh   | 16.967     | 16.993     | 17.028     |   0.6 |  6.37
Comm    | 0.42079    | 0.46651    | 0.49567    |   4.5 |  0.17
Output  | 0.00022153 | 0.0005427  | 0.0012496  |   0.0 |  0.00
Modify  | 174.77     | 174.78     | 174.79     |   0.1 | 65.52
Other   |            | 0.0264     |            |       |  0.01

Nlocal:           1089 ave        1494 max         702 min
Histogram: 2 0 0 0 0 0 0 0 1 1
Nghost:           9053 ave       12006 max        5884 min
Histogram: 2 0 0 0 0 0 0 0 0 2
Neighs:         542692 ave      798273 max      221438 min
Histogram: 1 0 1 0 0 0 0 0 0 2

Total # of neighbors = 2170766
Ave neighs/atom = 498.3393
Ave special neighs/atom = 0.05785124
Neighbor list builds = 1944
Dangerous builds = 0

  unfix swp
  thermo_style custom step temp pe

next temp
jump SELF minimize_temp

  variable ftemp equal v_temp

  # Electrostatic relaxation
  fix swp swpFe atom/swap 1 1 ${rand} ${temp} ke no types 6 7
  fix swp swpFe atom/swap 1 1 7716369 ${temp} ke no types 6 7
  fix swp swpFe atom/swap 1 1 7716369 14118 ke no types 6 7
  thermo 100
  thermo_style custom step v_ftemp pe f_swp[1] f_swp[2]
  run ${nsteps}
  run 972
WARNING: No fixes with time integration, atoms won't move (../verlet.cpp:60)
PPPM initialization ...
  using 12-bit tables for long-range coulomb (../kspace.cpp:340)
  G vector (1/distance) = 0.29499882
  grid = 45 45 250
  stencil order = 5
  estimated absolute RMS force accuracy = 0.00038505019
  estimated relative force accuracy = 1.1595672e-06
  using double precision KISS FFT
  3d grid and FFT values/proc = 554040 378675
  generated 45 of 45 mixed pair_coeff terms from arithmetic mixing rule
Per MPI rank memory allocation (min/avg/max) = 24.36 | 35.12 | 63.74 Mbytes
Step v_ftemp PotEng f_swp[1] f_swp[2] 
   11664        14118   -792154.55            0            0 
   11700        14118   -792152.71           36           18 
   11800        14118   -791999.78          136           50 
   11900        14118   -791982.67          236           87 
   12000        14118   -792103.16          336          125 
   12100        14118   -792100.86          436          166 
   12200        14118    -791916.5          536          205 
   12300        14118   -792100.63          636          247 
   12400        14118   -792060.54          736          279 
   12500        14118   -792160.16          836          321 
   12600        14118   -792123.48          936          358 
   12636        14118   -792028.06          972          371 
Loop time of 265.679 on 4 procs for 972 steps with 4356 atoms

Performance: 0.158 ns/day, 151.851 hours/ns, 3.659 timesteps/s
94.1% CPU use with 4 MPI tasks x no OpenMP threads

MPI task timing breakdown:
Section |  min time  |  avg time  |  max time  |%varavg| %total
---------------------------------------------------------------
Pair    | 3.1928     | 7.6187     | 11.265     | 123.1 |  2.87
Bond    | 0.0019948  | 0.0047824  | 0.01286    |   6.7 |  0.00
Kspace  | 62.161     | 65.81      | 70.235     |  41.9 | 24.77
Neigh   | 17.196     | 17.219     | 17.253     |   0.6 |  6.48
Comm    | 0.39828    | 0.44282    | 0.47082    |   4.5 |  0.17
Output  | 0.00023437 | 0.00062516 | 0.0016239  |   0.0 |  0.00
Modify  | 174.54     | 174.56     | 174.57     |   0.1 | 65.70
Other   |            | 0.02775    |            |       |  0.01

Nlocal:           1089 ave        1494 max         702 min
Histogram: 2 0 0 0 0 0 0 0 1 1
Nghost:           9053 ave       12006 max        5884 min
Histogram: 2 0 0 0 0 0 0 0 0 2
Neighs:         542692 ave      798273 max      221438 min
Histogram: 1 0 1 0 0 0 0 0 0 2

Total # of neighbors = 2170766
Ave neighs/atom = 498.3393
Ave special neighs/atom = 0.05785124
Neighbor list builds = 1944
Dangerous builds = 0

  unfix swp
  thermo_style custom step temp pe

next temp
jump SELF minimize_temp

  variable ftemp equal v_temp

  # Electrostatic relaxation
  fix swp swpFe atom/swap 1 1 ${rand} ${temp} ke no types 6 7
  fix swp swpFe atom/swap 1 1 8487327 ${temp} ke no types 6 7
  fix swp swpFe atom/swap 1 1 8487327 12706 ke no types 6 7
  thermo 100
  thermo_style custom step v_ftemp pe f_swp[1] f_swp[2]
  run ${nsteps}
  run 972
WARNING: No fixes with time integration, atoms won't move (../verlet.cpp:60)
PPPM initialization ...
  using 12-bit tables for long-range coulomb (../kspace.cpp:340)
  G vector (1/distance) = 0.29499882
  grid = 45 45 250
  stencil order = 5
  estimated absolute RMS force accuracy = 0.00038505019
  estimated relative force accuracy = 1.1595672e-06
  using double precision KISS FFT
  3d grid and FFT values/proc = 554040 378675
  generated 45 of 45 mixed pair_coeff terms from arithmetic mixing rule
Per MPI rank memory allocation (min/avg/max) = 24.36 | 35.12 | 63.74 Mbytes
Step v_ftemp PotEng f_swp[1] f_swp[2] 
   12636        12706   -792028.06            0            0 
   12700        12706   -792186.96           64           24 
   12800        12706   -792159.13          164           56 
   12900        12706   -792246.62          264           79 
   13000        12706   -792309.43          364          109 
   13100        12706   -792120.41          464          148 
   13200        12706   -792261.53          564          174 
   13300        12706   -792200.79          664          206 
   13400        12706   -792056.71          764          233 
   13500        12706    -792067.3          864          268 
   13600        12706   -791982.68          964          303 
   13608        12706   -792062.97          972          305 
Loop time of 268.984 on 4 procs for 972 steps with 4356 atoms

Performance: 0.156 ns/day, 153.740 hours/ns, 3.614 timesteps/s
94.5% CPU use with 4 MPI tasks x no OpenMP threads

MPI task timing breakdown:
Section |  min time  |  avg time  |  max time  |%varavg| %total
---------------------------------------------------------------
Pair    | 3.1546     | 7.4719     | 11.063     | 121.0 |  2.78
Bond    | 0.0014405  | 0.0041194  | 0.011793   |   6.9 |  0.00
Kspace  | 63.707     | 67.301     | 71.617     |  40.3 | 25.02
Neigh   | 16.914     | 16.939     | 16.977     |   0.6 |  6.30
Comm    | 0.42703    | 0.47692    | 0.50643    |   4.7 |  0.18
Output  | 0.00021106 | 0.00053247 | 0.0013351  |   0.0 |  0.00
Modify  | 176.75     | 176.76     | 176.78     |   0.1 | 65.72
Other   |            | 0.02676    |            |       |  0.01

Nlocal:           1089 ave        1494 max         702 min
Histogram: 2 0 0 0 0 0 0 0 1 1
Nghost:           9053 ave       12006 max        5884 min
Histogram: 2 0 0 0 0 0 0 0 0 2
Neighs:         542692 ave      798273 max      221438 min
Histogram: 1 0 1 0 0 0 0 0 0 2

Total # of neighbors = 2170766
Ave neighs/atom = 498.3393
Ave special neighs/atom = 0.05785124
Neighbor list builds = 1944
Dangerous builds = 0

  unfix swp
  thermo_style custom step temp pe

next temp
jump SELF minimize_temp

  variable ftemp equal v_temp

  # Electrostatic relaxation
  fix swp swpFe atom/swap 1 1 ${rand} ${temp} ke no types 6 7
  fix swp swpFe atom/swap 1 1 8505477 ${temp} ke no types 6 7
  fix swp swpFe atom/swap 1 1 8505477 11435 ke no types 6 7
  thermo 100
  thermo_style custom step v_ftemp pe f_swp[1] f_swp[2]
  run ${nsteps}
  run 972
WARNING: No fixes with time integration, atoms won't move (../verlet.cpp:60)
PPPM initialization ...
  using 12-bit tables for long-range coulomb (../kspace.cpp:340)
  G vector (1/distance) = 0.29499882
  grid = 45 45 250
  stencil order = 5
  estimated absolute RMS force accuracy = 0.00038505019
  estimated relative force accuracy = 1.1595672e-06
  using double precision KISS FFT
  3d grid and FFT values/proc = 554040 378675
  generated 45 of 45 mixed pair_coeff terms from arithmetic mixing rule
Per MPI rank memory allocation (min/avg/max) = 24.36 | 35.12 | 63.74 Mbytes
Step v_ftemp PotEng f_swp[1] f_swp[2] 
   13608        11435   -792062.97            0            0 
   13700        11435   -792038.22           92           27 
   13800        11435   -792274.73          192           59 
   13900        11435   -792133.24          292           88 
   14000        11435   -792154.91          392          122 
   14100        11435   -792214.38          492          148 
   14200        11435    -792180.2          592          174 
   14300        11435   -792194.97          692          205 
   14400        11435   -792258.38          792          230 
   14500        11435   -792253.96          892          258 
   14580        11435   -792212.12          972          276 
Loop time of 269.848 on 4 procs for 972 steps with 4356 atoms

Performance: 0.156 ns/day, 154.234 hours/ns, 3.602 timesteps/s
94.4% CPU use with 4 MPI tasks x no OpenMP threads

MPI task timing breakdown:
Section |  min time  |  avg time  |  max time  |%varavg| %total
---------------------------------------------------------------
Pair    | 3.1071     | 7.4308     | 10.965     | 122.0 |  2.75
Bond    | 0.0015532  | 0.003986   | 0.01114    |   6.5 |  0.00
Kspace  | 64.46      | 67.991     | 72.319     |  40.4 | 25.20
Neigh   | 16.948     | 16.971     | 17.014     |   0.7 |  6.29
Comm    | 0.42937    | 0.47796    | 0.50846    |   4.7 |  0.18
Output  | 0.00019616 | 0.0005962  | 0.001632   |   0.0 |  0.00
Modify  | 176.93     | 176.95     | 176.96     |   0.1 | 65.57
Other   |            | 0.02508    |            |       |  0.01

Nlocal:           1089 ave        1494 max         702 min
Histogram: 2 0 0 0 0 0 0 0 1 1
Nghost:           9053 ave       12006 max        5884 min
Histogram: 2 0 0 0 0 0 0 0 0 2
Neighs:         542692 ave      798273 max      221438 min
Histogram: 1 0 1 0 0 0 0 0 0 2

Total # of neighbors = 2170766
Ave neighs/atom = 498.3393
Ave special neighs/atom = 0.05785124
Neighbor list builds = 1944
Dangerous builds = 0

  unfix swp
  thermo_style custom step temp pe

next temp
jump SELF minimize_temp

  variable ftemp equal v_temp

  # Electrostatic relaxation
  fix swp swpFe atom/swap 1 1 ${rand} ${temp} ke no types 6 7
  fix swp swpFe atom/swap 1 1 980195 ${temp} ke no types 6 7
  fix swp swpFe atom/swap 1 1 980195 10291 ke no types 6 7
  thermo 100
  thermo_style custom step v_ftemp pe f_swp[1] f_swp[2]
  run ${nsteps}
  run 972
WARNING: No fixes with time integration, atoms won't move (../verlet.cpp:60)
PPPM initialization ...
  using 12-bit tables for long-range coulomb (../kspace.cpp:340)
  G vector (1/distance) = 0.29499882
  grid = 45 45 250
  stencil order = 5
  estimated absolute RMS force accuracy = 0.00038505019
  estimated relative force accuracy = 1.1595672e-06
  using double precision KISS FFT
  3d grid and FFT values/proc = 554040 378675
  generated 45 of 45 mixed pair_coeff terms from arithmetic mixing rule
Per MPI rank memory allocation (min/avg/max) = 24.36 | 35.12 | 63.74 Mbytes
Step v_ftemp PotEng f_swp[1] f_swp[2] 
   14580        10291   -792212.12            0            0 
   14600        10291   -792260.84           20            6 
   14700        10291   -792227.15          120           34 
   14800        10291   -792216.23          220           64 
   14900        10291   -792329.73          320           81 
   15000        10291   -792257.72          420          106 
   15100        10291   -792019.75          520          133 
   15200        10291   -792182.63          620          161 
   15300        10291   -792311.74          720          190 
   15400        10291   -792182.45          820          221 
   15500        10291   -792239.19          920          252 
   15552        10291   -792190.53          972          264 
Loop time of 267.161 on 4 procs for 972 steps with 4356 atoms

Performance: 0.157 ns/day, 152.699 hours/ns, 3.638 timesteps/s
94.3% CPU use with 4 MPI tasks x no OpenMP threads

MPI task timing breakdown:
Section |  min time  |  avg time  |  max time  |%varavg| %total
---------------------------------------------------------------
Pair    | 3.2343     | 7.6533     | 11.264     | 122.6 |  2.86
Bond    | 0.0016052  | 0.0046692  | 0.013114   |   7.1 |  0.00
Kspace  | 63.096     | 66.712     | 71.13      |  41.6 | 24.97
Neigh   | 16.925     | 16.949     | 16.984     |   0.6 |  6.34
Comm    | 0.39614    | 0.44174    | 0.46935    |   4.5 |  0.17
Output  | 0.00021913 | 0.00054269 | 0.0013589  |   0.0 |  0.00
Modify  | 175.36     | 175.37     | 175.38     |   0.1 | 65.64
Other   |            | 0.02808    |            |       |  0.01

Nlocal:           1089 ave        1494 max         702 min
Histogram: 2 0 0 0 0 0 0 0 1 1
Nghost:           9053 ave       12006 max        5884 min
Histogram: 2 0 0 0 0 0 0 0 0 2
Neighs:         542692 ave      798273 max      221438 min
Histogram: 1 0 1 0 0 0 0 0 0 2

Total # of neighbors = 2170766
Ave neighs/atom = 498.3393
Ave special neighs/atom = 0.05785124
Neighbor list builds = 1944
Dangerous builds = 0

  unfix swp
  thermo_style custom step temp pe

next temp
jump SELF minimize_temp

  variable ftemp equal v_temp

  # Electrostatic relaxation
  fix swp swpFe atom/swap 1 1 ${rand} ${temp} ke no types 6 7
  fix swp swpFe atom/swap 1 1 2065900 ${temp} ke no types 6 7
  fix swp swpFe atom/swap 1 1 2065900 9261 ke no types 6 7
  thermo 100
  thermo_style custom step v_ftemp pe f_swp[1] f_swp[2]
  run ${nsteps}
  run 972
WARNING: No fixes with time integration, atoms won't move (../verlet.cpp:60)
PPPM initialization ...
  using 12-bit tables for long-range coulomb (../kspace.cpp:340)
  G vector (1/distance) = 0.29499882
  grid = 45 45 250
  stencil order = 5
  estimated absolute RMS force accuracy = 0.00038505019
  estimated relative force accuracy = 1.1595672e-06
  using double precision KISS FFT
  3d grid and FFT values/proc = 554040 378675
  generated 45 of 45 mixed pair_coeff terms from arithmetic mixing rule
Per MPI rank memory allocation (min/avg/max) = 24.36 | 35.12 | 63.74 Mbytes
Step v_ftemp PotEng f_swp[1] f_swp[2] 
   15552         9261   -792190.53            0            0 
   15600         9261   -792232.78           48           13 
   15700         9261   -792140.72          148           38 
   15800         9261   -792226.51          248           59 
   15900         9261   -792230.32          348           77 
   16000         9261    -792193.2          448          102 
   16100         9261   -792194.35          548          125 
   16200         9261   -792203.88          648          152 
   16300         9261   -792029.37          748          181 
   16400         9261   -792212.87          848          204 
   16500         9261   -792252.28          948          227 
   16524         9261   -792111.03          972          238 
Loop time of 265.858 on 4 procs for 972 steps with 4356 atoms

Performance: 0.158 ns/day, 151.954 hours/ns, 3.656 timesteps/s
94.1% CPU use with 4 MPI tasks x no OpenMP threads

MPI task timing breakdown:
Section |  min time  |  avg time  |  max time  |%varavg| %total
---------------------------------------------------------------
Pair    | 3.234      | 7.6463     | 11.22      | 122.4 |  2.88
Bond    | 0.0017906  | 0.0057324  | 0.012426   |   5.7 |  0.00
Kspace  | 62.973     | 66.549     | 70.962     |  41.5 | 25.03
Neigh   | 16.908     | 16.934     | 16.969     |   0.6 |  6.37
Comm    | 0.39438    | 0.43972    | 0.46832    |   4.6 |  0.17
Output  | 0.00023658 | 0.00055365 | 0.0013208  |   0.0 |  0.00
Modify  | 174.24     | 174.25     | 174.27     |   0.1 | 65.54
Other   |            | 0.02823    |            |       |  0.01

Nlocal:           1089 ave        1494 max         702 min
Histogram: 2 0 0 0 0 0 0 0 1 1
Nghost:           9053 ave       12006 max        5884 min
Histogram: 2 0 0 0 0 0 0 0 0 2
Neighs:         542692 ave      798273 max      221438 min
Histogram: 1 0 1 0 0 0 0 0 0 2

Total # of neighbors = 2170766
Ave neighs/atom = 498.3393
Ave special neighs/atom = 0.05785124
Neighbor list builds = 1944
Dangerous builds = 0

  unfix swp
  thermo_style custom step temp pe

next temp
jump SELF minimize_temp

  variable ftemp equal v_temp

  # Electrostatic relaxation
  fix swp swpFe atom/swap 1 1 ${rand} ${temp} ke no types 6 7
  fix swp swpFe atom/swap 1 1 5185835 ${temp} ke no types 6 7
  fix swp swpFe atom/swap 1 1 5185835 8334 ke no types 6 7
  thermo 100
  thermo_style custom step v_ftemp pe f_swp[1] f_swp[2]
  run ${nsteps}
  run 972
WARNING: No fixes with time integration, atoms won't move (../verlet.cpp:60)
PPPM initialization ...
  using 12-bit tables for long-range coulomb (../kspace.cpp:340)
  G vector (1/distance) = 0.29499882
  grid = 45 45 250
  stencil order = 5
  estimated absolute RMS force accuracy = 0.00038505019
  estimated relative force accuracy = 1.1595672e-06
  using double precision KISS FFT
  3d grid and FFT values/proc = 554040 378675
  generated 45 of 45 mixed pair_coeff terms from arithmetic mixing rule
Per MPI rank memory allocation (min/avg/max) = 24.36 | 35.12 | 63.74 Mbytes
Step v_ftemp PotEng f_swp[1] f_swp[2] 
   16524         8334   -792111.03            0            0 
   16600         8334   -792320.49           76           18 
   16700         8334   -792372.86          176           32 
   16800         8334   -792401.37          276           47 
   16900         8334   -792269.84          376           69 
   17000         8334   -792352.67          476           83 
   17100         8334   -792284.94          576          105 
   17200         8334   -792262.46          676          121 
   17300         8334   -792294.74          776          137 
   17400         8334   -792404.81          876          157 
   17496         8334   -792241.58          972          174 
Loop time of 269.533 on 4 procs for 972 steps with 4356 atoms

Performance: 0.156 ns/day, 154.054 hours/ns, 3.606 timesteps/s
94.4% CPU use with 4 MPI tasks x no OpenMP threads

MPI task timing breakdown:
Section |  min time  |  avg time  |  max time  |%varavg| %total
---------------------------------------------------------------
Pair    | 3.1519     | 7.5293     | 11.141     | 122.6 |  2.79
Bond    | 0.001711   | 0.0045516  | 0.01206    |   6.4 |  0.00
Kspace  | 64.6       | 68.214     | 72.59      |  40.8 | 25.31
Neigh   | 16.756     | 16.78      | 16.815     |   0.6 |  6.23
Comm    | 0.41335    | 0.45783    | 0.4863     |   4.5 |  0.17
Output  | 0.00018419 | 0.00052575 | 0.0013938  |   0.0 |  0.00
Modify  | 176.51     | 176.52     | 176.53     |   0.1 | 65.49
Other   |            | 0.02421    |            |       |  0.01

Nlocal:           1089 ave        1494 max         702 min
Histogram: 2 0 0 0 0 0 0 0 1 1
Nghost:           9053 ave       12006 max        5884 min
Histogram: 2 0 0 0 0 0 0 0 0 2
Neighs:         542692 ave      798273 max      221438 min
Histogram: 1 0 1 0 0 0 0 0 0 2

Total # of neighbors = 2170766
Ave neighs/atom = 498.3393
Ave special neighs/atom = 0.05785124
Neighbor list builds = 1944
Dangerous builds = 0

  unfix swp
  thermo_style custom step temp pe

next temp
jump SELF minimize_temp

  variable ftemp equal v_temp

  # Electrostatic relaxation
  fix swp swpFe atom/swap 1 1 ${rand} ${temp} ke no types 6 7
  fix swp swpFe atom/swap 1 1 3359353 ${temp} ke no types 6 7
  fix swp swpFe atom/swap 1 1 3359353 7500 ke no types 6 7
  thermo 100
  thermo_style custom step v_ftemp pe f_swp[1] f_swp[2]
  run ${nsteps}
  run 972
WARNING: No fixes with time integration, atoms won't move (../verlet.cpp:60)
PPPM initialization ...
  using 12-bit tables for long-range coulomb (../kspace.cpp:340)
  G vector (1/distance) = 0.29499882
  grid = 45 45 250
  stencil order = 5
  estimated absolute RMS force accuracy = 0.00038505019
  estimated relative force accuracy = 1.1595672e-06
  using double precision KISS FFT
  3d grid and FFT values/proc = 554040 378675
  generated 45 of 45 mixed pair_coeff terms from arithmetic mixing rule
Per MPI rank memory allocation (min/avg/max) = 24.36 | 35.12 | 63.74 Mbytes
Step v_ftemp PotEng f_swp[1] f_swp[2] 
   17496         7500   -792241.58            0            0 
   17500         7500   -792195.34            4            1 
   17600         7500   -792266.08          104           21 
   17700         7500   -792283.74          204           46 
   17800         7500   -792248.13          304           63 
   17900         7500   -792256.91          404           80 
   18000         7500   -792355.29          504           97 
   18100         7500   -792272.75          604          118 
   18200         7500   -792295.83          704          133 
   18300         7500   -792375.37          804          153 
   18400         7500   -792330.51          904          178 
   18468         7500   -792298.22          972          190 
Loop time of 270.55 on 4 procs for 972 steps with 4356 atoms

Performance: 0.155 ns/day, 154.636 hours/ns, 3.593 timesteps/s
94.2% CPU use with 4 MPI tasks x no OpenMP threads

MPI task timing breakdown:
Section |  min time  |  avg time  |  max time  |%varavg| %total
---------------------------------------------------------------
Pair    | 3.0877     | 7.4044     | 10.943     | 121.8 |  2.74
Bond    | 0.0013716  | 0.0039701  | 0.011097   |   6.5 |  0.00
Kspace  | 64.339     | 67.882     | 72.194     |  40.2 | 25.09
Neigh   | 16.898     | 16.924     | 16.963     |   0.6 |  6.26
Comm    | 0.44431    | 0.49929    | 0.53142    |   4.9 |  0.18
Output  | 0.00020537 | 0.00046307 | 0.0010924  |   0.0 |  0.00
Modify  | 177.8      | 177.81     | 177.83     |   0.1 | 65.72
Other   |            | 0.02463    |            |       |  0.01

Nlocal:           1089 ave        1494 max         702 min
Histogram: 2 0 0 0 0 0 0 0 1 1
Nghost:           9053 ave       12006 max        5884 min
Histogram: 2 0 0 0 0 0 0 0 0 2
Neighs:         542692 ave      798273 max      221438 min
Histogram: 1 0 1 0 0 0 0 0 0 2

Total # of neighbors = 2170766
Ave neighs/atom = 498.3393
Ave special neighs/atom = 0.05785124
Neighbor list builds = 1944
Dangerous builds = 0

  unfix swp
  thermo_style custom step temp pe

next temp
jump SELF minimize_temp

  variable ftemp equal v_temp

  # Electrostatic relaxation
  fix swp swpFe atom/swap 1 1 ${rand} ${temp} ke no types 6 7
  fix swp swpFe atom/swap 1 1 6806545 ${temp} ke no types 6 7
  fix swp swpFe atom/swap 1 1 6806545 6750 ke no types 6 7
  thermo 100
  thermo_style custom step v_ftemp pe f_swp[1] f_swp[2]
  run ${nsteps}
  run 972
WARNING: No fixes with time integration, atoms won't move (../verlet.cpp:60)
PPPM initialization ...
  using 12-bit tables for long-range coulomb (../kspace.cpp:340)
  G vector (1/distance) = 0.29499882
  grid = 45 45 250
  stencil order = 5
  estimated absolute RMS force accuracy = 0.00038505019
  estimated relative force accuracy = 1.1595672e-06
  using double precision KISS FFT
  3d grid and FFT values/proc = 554040 378675
  generated 45 of 45 mixed pair_coeff terms from arithmetic mixing rule
Per MPI rank memory allocation (min/avg/max) = 24.36 | 35.12 | 63.74 Mbytes
Step v_ftemp PotEng f_swp[1] f_swp[2] 
   18468         6750   -792298.22            0            0 
   18500         6750   -792311.01           32            5 
   18600         6750   -792260.82          132           32 
   18700         6750   -792298.87          232           53 
   18800         6750   -792348.25          332           69 
   18900         6750    -792310.5          432           84 
   19000         6750   -792271.91          532           99 
   19100         6750   -792409.19          632          124 
   19200         6750   -792251.34          732          142 
   19300         6750   -792304.75          832          162 
   19400         6750   -792305.91          932          175 
   19440         6750   -792275.86          972          181 
Loop time of 270.571 on 4 procs for 972 steps with 4356 atoms

Performance: 0.155 ns/day, 154.647 hours/ns, 3.592 timesteps/s
94.4% CPU use with 4 MPI tasks x no OpenMP threads

MPI task timing breakdown:
Section |  min time  |  avg time  |  max time  |%varavg| %total
---------------------------------------------------------------
Pair    | 3.1339     | 7.4325     | 10.979     | 121.5 |  2.75
Bond    | 0.0013742  | 0.003916   | 0.011355   |   6.9 |  0.00
Kspace  | 64.201     | 67.749     | 72.047     |  40.3 | 25.04
Neigh   | 16.912     | 16.937     | 16.976     |   0.6 |  6.26
Comm    | 0.43089    | 0.48424    | 0.51917    |   5.1 |  0.18
Output  | 0.00025353 | 0.00058743 | 0.0014214  |   0.0 |  0.00
Modify  | 177.92     | 177.94     | 177.95     |   0.1 | 65.76
Other   |            | 0.02582    |            |       |  0.01

Nlocal:           1089 ave        1494 max         702 min
Histogram: 2 0 0 0 0 0 0 0 1 1
Nghost:           9053 ave       12006 max        5884 min
Histogram: 2 0 0 0 0 0 0 0 0 2
Neighs:         542692 ave      798273 max      221438 min
Histogram: 1 0 1 0 0 0 0 0 0 2

Total # of neighbors = 2170766
Ave neighs/atom = 498.3393
Ave special neighs/atom = 0.05785124
Neighbor list builds = 1944
Dangerous builds = 0

  unfix swp
  thermo_style custom step temp pe

next temp
jump SELF minimize_temp

  variable ftemp equal v_temp

  # Electrostatic relaxation
  fix swp swpFe atom/swap 1 1 ${rand} ${temp} ke no types 6 7
  fix swp swpFe atom/swap 1 1 594805 ${temp} ke no types 6 7
  fix swp swpFe atom/swap 1 1 594805 6075 ke no types 6 7
  thermo 100
  thermo_style custom step v_ftemp pe f_swp[1] f_swp[2]
  run ${nsteps}
  run 972
WARNING: No fixes with time integration, atoms won't move (../verlet.cpp:60)
PPPM initialization ...
  using 12-bit tables for long-range coulomb (../kspace.cpp:340)
  G vector (1/distance) = 0.29499882
  grid = 45 45 250
  stencil order = 5
  estimated absolute RMS force accuracy = 0.00038505019
  estimated relative force accuracy = 1.1595672e-06
  using double precision KISS FFT
  3d grid and FFT values/proc = 554040 378675
  generated 45 of 45 mixed pair_coeff terms from arithmetic mixing rule
Per MPI rank memory allocation (min/avg/max) = 24.36 | 35.12 | 63.74 Mbytes
Step v_ftemp PotEng f_swp[1] f_swp[2] 
   19440         6075   -792275.86            0            0 
   19500         6075   -792316.06           60           15 
   19600         6075   -792279.87          160           30 
   19700         6075   -792301.17          260           48 
   19800         6075   -792346.01          360           64 
   19900         6075   -792355.19          460           79 
   20000         6075   -792331.77          560           94 
   20100         6075   -792320.35          660          105 
   20200         6075   -792282.78          760          128 
   20300         6075   -792308.48          860          144 
   20400         6075   -792291.19          960          158 
   20412         6075   -792292.65          972          159 
Loop time of 266.986 on 4 procs for 972 steps with 4356 atoms

Performance: 0.157 ns/day, 152.598 hours/ns, 3.641 timesteps/s
94.1% CPU use with 4 MPI tasks x no OpenMP threads

MPI task timing breakdown:
Section |  min time  |  avg time  |  max time  |%varavg| %total
---------------------------------------------------------------
Pair    | 3.1129     | 7.4067     | 10.964     | 121.2 |  2.77
Bond    | 0.0014121  | 0.0039935  | 0.011453   |   6.8 |  0.00
Kspace  | 62.746     | 66.304     | 70.597     |  40.5 | 24.83
Neigh   | 17.024     | 17.051     | 17.092     |   0.7 |  6.39
Comm    | 0.45418    | 0.50964    | 0.54272    |   5.1 |  0.19
Output  | 0.00024561 | 0.00053892 | 0.0012344  |   0.0 |  0.00
Modify  | 175.67     | 175.68     | 175.7      |   0.1 | 65.80
Other   |            | 0.02579    |            |       |  0.01

Nlocal:           1089 ave        1494 max         702 min
Histogram: 2 0 0 0 0 0 0 0 1 1
Nghost:           9053 ave       12006 max        5884 min
Histogram: 2 0 0 0 0 0 0 0 0 2
Neighs:         542692 ave      798273 max      221438 min
Histogram: 1 0 1 0 0 0 0 0 0 2

Total # of neighbors = 2170766
Ave neighs/atom = 498.3393
Ave special neighs/atom = 0.05785124
Neighbor list builds = 1944
Dangerous builds = 0

  unfix swp
  thermo_style custom step temp pe

next temp
jump SELF minimize_temp

  variable ftemp equal v_temp

  # Electrostatic relaxation
  fix swp swpFe atom/swap 1 1 ${rand} ${temp} ke no types 6 7
  fix swp swpFe atom/swap 1 1 3129163 ${temp} ke no types 6 7
  fix swp swpFe atom/swap 1 1 3129163 5467 ke no types 6 7
  thermo 100
  thermo_style custom step v_ftemp pe f_swp[1] f_swp[2]
  run ${nsteps}
  run 972
WARNING: No fixes with time integration, atoms won't move (../verlet.cpp:60)
PPPM initialization ...
  using 12-bit tables for long-range coulomb (../kspace.cpp:340)
  G vector (1/distance) = 0.29499882
  grid = 45 45 250
  stencil order = 5
  estimated absolute RMS force accuracy = 0.00038505019
  estimated relative force accuracy = 1.1595672e-06
  using double precision KISS FFT
  3d grid and FFT values/proc = 554040 378675
  generated 45 of 45 mixed pair_coeff terms from arithmetic mixing rule
Per MPI rank memory allocation (min/avg/max) = 24.36 | 35.12 | 63.74 Mbytes
Step v_ftemp PotEng f_swp[1] f_swp[2] 
   20412         5467   -792292.65            0            0 
   20500         5467   -792324.93           88           11 
   20600         5467   -792372.48          188           24 
   20700         5467   -792379.31          288           38 
   20800         5467   -792364.18          388           50 
   20900         5467   -792418.79          488           61 
   21000         5467   -792419.11          588           74 
   21100         5467   -792391.45          688           94 
   21200         5467   -792420.03          788          102 
   21300         5467   -792340.44          888          108 
   21384         5467   -792268.61          972          122 
Loop time of 266.245 on 4 procs for 972 steps with 4356 atoms

Performance: 0.158 ns/day, 152.175 hours/ns, 3.651 timesteps/s
94.1% CPU use with 4 MPI tasks x no OpenMP threads

MPI task timing breakdown:
Section |  min time  |  avg time  |  max time  |%varavg| %total
---------------------------------------------------------------
Pair    | 3.1871     | 7.5536     | 11.061     | 122.0 |  2.84
Bond    | 0.0014218  | 0.0045784  | 0.01283    |   7.1 |  0.00
Kspace  | 62.791     | 66.3       | 70.663     |  41.2 | 24.90
Neigh   | 16.77      | 16.794     | 16.83      |   0.6 |  6.31
Comm    | 0.40368    | 0.45148    | 0.47942    |   4.6 |  0.17
Output  | 0.00018594 | 0.00041421 | 0.00097037 |   0.0 |  0.00
Modify  | 175.1      | 175.11     | 175.13     |   0.1 | 65.77
Other   |            | 0.02703    |            |       |  0.01

Nlocal:           1089 ave        1494 max         702 min
Histogram: 2 0 0 0 0 0 0 0 1 1
Nghost:           9053 ave       12006 max        5884 min
Histogram: 2 0 0 0 0 0 0 0 0 2
Neighs:         542692 ave      798273 max      221438 min
Histogram: 1 0 1 0 0 0 0 0 0 2

Total # of neighbors = 2170766
Ave neighs/atom = 498.3393
Ave special neighs/atom = 0.05785124
Neighbor list builds = 1944
Dangerous builds = 0

  unfix swp
  thermo_style custom step temp pe

next temp
jump SELF minimize_temp

  variable ftemp equal v_temp

  # Electrostatic relaxation
  fix swp swpFe atom/swap 1 1 ${rand} ${temp} ke no types 6 7
  fix swp swpFe atom/swap 1 1 8397505 ${temp} ke no types 6 7
  fix swp swpFe atom/swap 1 1 8397505 4920 ke no types 6 7
  thermo 100
  thermo_style custom step v_ftemp pe f_swp[1] f_swp[2]
  run ${nsteps}
  run 972
WARNING: No fixes with time integration, atoms won't move (../verlet.cpp:60)
PPPM initialization ...
  using 12-bit tables for long-range coulomb (../kspace.cpp:340)
  G vector (1/distance) = 0.29499882
  grid = 45 45 250
  stencil order = 5
  estimated absolute RMS force accuracy = 0.00038505019
  estimated relative force accuracy = 1.1595672e-06
  using double precision KISS FFT
  3d grid and FFT values/proc = 554040 378675
  generated 45 of 45 mixed pair_coeff terms from arithmetic mixing rule
Per MPI rank memory allocation (min/avg/max) = 24.36 | 35.12 | 63.74 Mbytes
Step v_ftemp PotEng f_swp[1] f_swp[2] 
   21384         4920   -792268.61            0            0 
   21400         4920   -792287.64           16            3 
   21500         4920   -792456.41          116           17 
   21600         4920   -792452.86          216           27 
   21700         4920   -792381.62          316           34 
   21800         4920   -792313.74          416           47 
   21900         4920   -792370.95          516           58 
   22000         4920   -792364.91          616           73 
   22100         4920   -792334.51          716           84 
   22200         4920   -792342.54          816           96 
   22300         4920   -792404.02          916          106 
   22356         4920   -792403.62          972          114 
Loop time of 268.936 on 4 procs for 972 steps with 4356 atoms

Performance: 0.156 ns/day, 153.713 hours/ns, 3.614 timesteps/s
94.2% CPU use with 4 MPI tasks x no OpenMP threads

MPI task timing breakdown:
Section |  min time  |  avg time  |  max time  |%varavg| %total
---------------------------------------------------------------
Pair    | 3.1562     | 7.4242     | 10.931     | 120.4 |  2.76
Bond    | 0.0010752  | 0.00406    | 0.011425   |   6.7 |  0.00
Kspace  | 64.375     | 67.884     | 72.15      |  39.8 | 25.24
Neigh   | 16.633     | 16.658     | 16.696     |   0.6 |  6.19
Comm    | 0.42654    | 0.47433    | 0.50245    |   4.5 |  0.18
Output  | 0.00022975 | 0.00051031 | 0.0011944  |   0.0 |  0.00
Modify  | 176.46     | 176.47     | 176.48     |   0.1 | 65.62
Other   |            | 0.02468    |            |       |  0.01

Nlocal:           1089 ave        1494 max         702 min
Histogram: 2 0 0 0 0 0 0 0 1 1
Nghost:           9053 ave       12006 max        5884 min
Histogram: 2 0 0 0 0 0 0 0 0 2
Neighs:         542692 ave      798273 max      221438 min
Histogram: 1 0 1 0 0 0 0 0 0 2

Total # of neighbors = 2170766
Ave neighs/atom = 498.3393
Ave special neighs/atom = 0.05785124
Neighbor list builds = 1944
Dangerous builds = 0

  unfix swp
  thermo_style custom step temp pe

next temp
jump SELF minimize_temp

  variable ftemp equal v_temp

  # Electrostatic relaxation
  fix swp swpFe atom/swap 1 1 ${rand} ${temp} ke no types 6 7
  fix swp swpFe atom/swap 1 1 7746391 ${temp} ke no types 6 7
  fix swp swpFe atom/swap 1 1 7746391 4428 ke no types 6 7
  thermo 100
  thermo_style custom step v_ftemp pe f_swp[1] f_swp[2]
  run ${nsteps}
  run 972
WARNING: No fixes with time integration, atoms won't move (../verlet.cpp:60)
PPPM initialization ...
  using 12-bit tables for long-range coulomb (../kspace.cpp:340)
  G vector (1/distance) = 0.29499882
  grid = 45 45 250
  stencil order = 5
  estimated absolute RMS force accuracy = 0.00038505019
  estimated relative force accuracy = 1.1595672e-06
  using double precision KISS FFT
  3d grid and FFT values/proc = 554040 378675
  generated 45 of 45 mixed pair_coeff terms from arithmetic mixing rule
Per MPI rank memory allocation (min/avg/max) = 24.36 | 35.12 | 63.74 Mbytes
Step v_ftemp PotEng f_swp[1] f_swp[2] 
   22356         4428   -792403.62            0            0 
   22400         4428   -792364.34           44            6 
   22500         4428   -792410.33          144           13 
   22600         4428   -792405.42          244           25 
   22700         4428   -792441.94          344           35 
   22800         4428   -792439.52          444           41 
   22900         4428   -792337.94          544           50 
   23000         4428   -792347.43          644           68 
   23100         4428   -792395.05          744           77 
   23200         4428   -792425.65          844           86 
   23300         4428   -792417.57          944           93 
   23328         4428   -792399.65          972           94 
Loop time of 267.664 on 4 procs for 972 steps with 4356 atoms

Performance: 0.157 ns/day, 152.986 hours/ns, 3.631 timesteps/s
94.2% CPU use with 4 MPI tasks x no OpenMP threads

MPI task timing breakdown:
Section |  min time  |  avg time  |  max time  |%varavg| %total
---------------------------------------------------------------
Pair    | 3.1672     | 7.5095     | 11.039     | 121.6 |  2.81
Bond    | 0.0016961  | 0.0044536  | 0.012032   |   6.6 |  0.00
Kspace  | 63.549     | 67.082     | 71.421     |  40.7 | 25.06
Neigh   | 16.739     | 16.764     | 16.801     |   0.6 |  6.26
Comm    | 0.41222    | 0.4621     | 0.49198    |   4.7 |  0.17
Output  | 0.00023183 | 0.00056791 | 0.0013935  |   0.0 |  0.00
Modify  | 175.81     | 175.82     | 175.83     |   0.1 | 65.69
Other   |            | 0.02539    |            |       |  0.01

Nlocal:           1089 ave        1494 max         702 min
Histogram: 2 0 0 0 0 0 0 0 1 1
Nghost:           9053 ave       12006 max        5884 min
Histogram: 2 0 0 0 0 0 0 0 0 2
Neighs:         542692 ave      798273 max      221438 min
Histogram: 1 0 1 0 0 0 0 0 0 2

Total # of neighbors = 2170766
Ave neighs/atom = 498.3393
Ave special neighs/atom = 0.05785124
Neighbor list builds = 1944
Dangerous builds = 0

  unfix swp
  thermo_style custom step temp pe

next temp
jump SELF minimize_temp

  variable ftemp equal v_temp

  # Electrostatic relaxation
  fix swp swpFe atom/swap 1 1 ${rand} ${temp} ke no types 6 7
  fix swp swpFe atom/swap 1 1 6520128 ${temp} ke no types 6 7
  fix swp swpFe atom/swap 1 1 6520128 3985 ke no types 6 7
  thermo 100
  thermo_style custom step v_ftemp pe f_swp[1] f_swp[2]
  run ${nsteps}
  run 972
WARNING: No fixes with time integration, atoms won't move (../verlet.cpp:60)
PPPM initialization ...
  using 12-bit tables for long-range coulomb (../kspace.cpp:340)
  G vector (1/distance) = 0.29499882
  grid = 45 45 250
  stencil order = 5
  estimated absolute RMS force accuracy = 0.00038505019
  estimated relative force accuracy = 1.1595672e-06
  using double precision KISS FFT
  3d grid and FFT values/proc = 554040 378675
  generated 45 of 45 mixed pair_coeff terms from arithmetic mixing rule
Per MPI rank memory allocation (min/avg/max) = 24.36 | 35.12 | 63.74 Mbytes
Step v_ftemp PotEng f_swp[1] f_swp[2] 
   23328         3985   -792399.65            0            0 
   23400         3985   -792400.53           72            6 
   23500         3985   -792433.83          172           16 
   23600         3985   -792453.59          272           23 
   23700         3985   -792426.08          372           32 
   23800         3985   -792420.95          472           40 
   23900         3985   -792418.18          572           47 
   24000         3985   -792400.22          672           58 
   24100         3985   -792362.12          772           68 
   24200         3985   -792400.57          872           77 
   24300         3985   -792431.27          972           91 
Loop time of 266.007 on 4 procs for 972 steps with 4356 atoms

Performance: 0.158 ns/day, 152.039 hours/ns, 3.654 timesteps/s
94.2% CPU use with 4 MPI tasks x no OpenMP threads

MPI task timing breakdown:
Section |  min time  |  avg time  |  max time  |%varavg| %total
---------------------------------------------------------------
Pair    | 3.1833     | 7.5202     | 11.052     | 121.8 |  2.83
Bond    | 0.0016977  | 0.0051037  | 0.011714   |   5.6 |  0.00
Kspace  | 62.707     | 66.246     | 70.582     |  41.1 | 24.90
Neigh   | 16.897     | 16.921     | 16.957     |   0.6 |  6.36
Comm    | 0.42082    | 0.46843    | 0.49707    |   4.5 |  0.18
Output  | 0.00020331 | 0.00045207 | 0.0010438  |   0.0 |  0.00
Modify  | 174.81     | 174.82     | 174.83     |   0.1 | 65.72
Other   |            | 0.02659    |            |       |  0.01

Nlocal:           1089 ave        1494 max         702 min
Histogram: 2 0 0 0 0 0 0 0 1 1
Nghost:           9053 ave       12006 max        5884 min
Histogram: 2 0 0 0 0 0 0 0 0 2
Neighs:         542692 ave      798273 max      221438 min
Histogram: 1 0 1 0 0 0 0 0 0 2

Total # of neighbors = 2170766
Ave neighs/atom = 498.3393
[...]
   79704            6   -792525.59          972            0 
Loop time of 273.498 on 4 procs for 972 steps with 4356 atoms

Performance: 0.154 ns/day, 156.321 hours/ns, 3.554 timesteps/s
94.2% CPU use with 4 MPI tasks x no OpenMP threads

MPI task timing breakdown:
Section |  min time  |  avg time  |  max time  |%varavg| %total
---------------------------------------------------------------
Pair    | 3.0756     | 7.3784     | 10.96      | 121.6 |  2.70
Bond    | 0.0014787  | 0.0038008  | 0.01046    |   6.2 |  0.00
Kspace  | 65.643     | 69.228     | 73.529     |  39.7 | 25.31
Neigh   | 16.738     | 16.771     | 16.815     |   0.7 |  6.13
Comm    | 0.43498    | 0.49105    | 0.53625    |   5.4 |  0.18
Output  | 0.00022641 | 0.00051447 | 0.0012196  |   0.0 |  0.00
Modify  | 179.59     | 179.6      | 179.61     |   0.1 | 65.67
Other   |            | 0.02398    |            |       |  0.01

Nlocal:           1089 ave        1494 max         702 min
Histogram: 2 0 0 0 0 0 0 0 1 1
Nghost:           9053 ave       12006 max        5884 min
Histogram: 2 0 0 0 0 0 0 0 0 2
Neighs:         542692 ave      798273 max      221438 min
Histogram: 1 0 1 0 0 0 0 0 0 2

Total # of neighbors = 2170766
Ave neighs/atom = 498.3393
Ave special neighs/atom = 0.05785124
Neighbor list builds = 1944
Dangerous builds = 0

  unfix swp
  thermo_style custom step temp pe

next temp
jump SELF minimize_temp

  variable ftemp equal v_temp

  # Electrostatic relaxation
  fix swp swpFe atom/swap 1 1 ${rand} ${temp} ke no types 6 7
  fix swp swpFe atom/swap 1 1 8822405 ${temp} ke no types 6 7
  fix swp swpFe atom/swap 1 1 8822405 5 ke no types 6 7
  thermo 100
  thermo_style custom step v_ftemp pe f_swp[1] f_swp[2]
  run ${nsteps}
  run 972
WARNING: No fixes with time integration, atoms won't move (../verlet.cpp:60)
PPPM initialization ...
  using 12-bit tables for long-range coulomb (../kspace.cpp:340)
  G vector (1/distance) = 0.29499882
  grid = 45 45 250
  stencil order = 5
  estimated absolute RMS force accuracy = 0.00038505019
  estimated relative force accuracy = 1.1595672e-06
  using double precision KISS FFT
  3d grid and FFT values/proc = 554040 378675
  generated 45 of 45 mixed pair_coeff terms from arithmetic mixing rule
Per MPI rank memory allocation (min/avg/max) = 24.36 | 35.12 | 63.74 Mbytes
Step v_ftemp PotEng f_swp[1] f_swp[2] 
   79704            5   -792525.59            0            0 
   79800            5   -792525.59           96            0 
   79900            5   -792525.59          196            0 
   80000            5   -792525.59          296            0 
   80100            5   -792525.59          396            0 
   80200            5   -792525.59          496            0 
   80300            5   -792525.59          596            0 
   80400            5   -792525.59          696            0 
   80500            5   -792525.59          796            0 
   80600            5   -792525.59          896            0 
   80676            5   -792525.59          972            0 
Loop time of 269.25 on 4 procs for 972 steps with 4356 atoms

Performance: 0.156 ns/day, 153.892 hours/ns, 3.610 timesteps/s
94.2% CPU use with 4 MPI tasks x no OpenMP threads

MPI task timing breakdown:
Section |  min time  |  avg time  |  max time  |%varavg| %total
---------------------------------------------------------------
Pair    | 3.165      | 7.5713     | 11.229     | 122.7 |  2.81
Bond    | 0.001601   | 0.0044489  | 0.012509   |   7.0 |  0.00
Kspace  | 64.109     | 67.77      | 72.173     |  41.0 | 25.17
Neigh   | 16.773     | 16.796     | 16.83      |   0.6 |  6.24
Comm    | 0.39128    | 0.43789    | 0.46606    |   4.6 |  0.16
Output  | 0.00019866 | 0.00045677 | 0.0010668  |   0.0 |  0.00
Modify  | 176.63     | 176.64     | 176.66     |   0.1 | 65.61
Other   |            | 0.02601    |            |       |  0.01

Nlocal:           1089 ave        1494 max         702 min
Histogram: 2 0 0 0 0 0 0 0 1 1
Nghost:           9053 ave       12006 max        5884 min
Histogram: 2 0 0 0 0 0 0 0 0 2
Neighs:         542692 ave      798273 max      221438 min
Histogram: 1 0 1 0 0 0 0 0 0 2

Total # of neighbors = 2170766
Ave neighs/atom = 498.3393
Ave special neighs/atom = 0.05785124
Neighbor list builds = 1944
Dangerous builds = 0

  unfix swp
  thermo_style custom step temp pe

next temp
jump SELF minimize_temp

  variable ftemp equal v_temp

  # Electrostatic relaxation
  fix swp swpFe atom/swap 1 1 ${rand} ${temp} ke no types 6 7
  fix swp swpFe atom/swap 1 1 1866513 ${temp} ke no types 6 7
  fix swp swpFe atom/swap 1 1 1866513 4 ke no types 6 7
  thermo 100
  thermo_style custom step v_ftemp pe f_swp[1] f_swp[2]
  run ${nsteps}
  run 972
WARNING: No fixes with time integration, atoms won't move (../verlet.cpp:60)
PPPM initialization ...
  using 12-bit tables for long-range coulomb (../kspace.cpp:340)
  G vector (1/distance) = 0.29499882
  grid = 45 45 250
  stencil order = 5
  estimated absolute RMS force accuracy = 0.00038505019
  estimated relative force accuracy = 1.1595672e-06
  using double precision KISS FFT
  3d grid and FFT values/proc = 554040 378675
  generated 45 of 45 mixed pair_coeff terms from arithmetic mixing rule
Per MPI rank memory allocation (min/avg/max) = 24.36 | 35.12 | 63.74 Mbytes
Step v_ftemp PotEng f_swp[1] f_swp[2] 
   80676            4   -792525.59            0            0 
   80700            4   -792525.59           24            0 
   80800            4   -792525.59          124            0 
   80900            4   -792525.59          224            0 
   81000            4   -792525.59          324            0 
   81100            4   -792525.59          424            0 
   81200            4   -792525.59          524            0 
   81300            4   -792525.59          624            0 
   81400            4   -792525.59          724            0 
   81500            4   -792525.59          824            0 
   81600            4   -792525.59          924            0 
   81648            4   -792525.59          972            0 
Loop time of 269.019 on 4 procs for 972 steps with 4356 atoms

Performance: 0.156 ns/day, 153.760 hours/ns, 3.613 timesteps/s
94.2% CPU use with 4 MPI tasks x no OpenMP threads

MPI task timing breakdown:
Section |  min time  |  avg time  |  max time  |%varavg| %total
---------------------------------------------------------------
Pair    | 3.1534     | 7.5483     | 11.25      | 123.6 |  2.81
Bond    | 0.0019453  | 0.0045842  | 0.012329   |   6.6 |  0.00
Kspace  | 63.763     | 67.466     | 71.859     |  41.4 | 25.08
Neigh   | 16.964     | 16.989     | 17.026     |   0.6 |  6.32
Comm    | 0.41053    | 0.45956    | 0.48928    |   4.7 |  0.17
Output  | 0.00025183 | 0.00062775 | 0.0015724  |   0.0 |  0.00
Modify  | 176.51     | 176.53     | 176.54     |   0.1 | 65.62
Other   |            | 0.02548    |            |       |  0.01

Nlocal:           1089 ave        1494 max         702 min
Histogram: 2 0 0 0 0 0 0 0 1 1
Nghost:           9053 ave       12006 max        5884 min
Histogram: 2 0 0 0 0 0 0 0 0 2
Neighs:         542692 ave      798273 max      221438 min
Histogram: 1 0 1 0 0 0 0 0 0 2

Total # of neighbors = 2170766
Ave neighs/atom = 498.3393
Ave special neighs/atom = 0.05785124
Neighbor list builds = 1944
Dangerous builds = 0

  unfix swp
  thermo_style custom step temp pe

next temp
jump SELF minimize_temp

  variable ftemp equal v_temp

  # Electrostatic relaxation
  fix swp swpFe atom/swap 1 1 ${rand} ${temp} ke no types 6 7
  fix swp swpFe atom/swap 1 1 2979469 ${temp} ke no types 6 7
  fix swp swpFe atom/swap 1 1 2979469 3 ke no types 6 7
  thermo 100
  thermo_style custom step v_ftemp pe f_swp[1] f_swp[2]
  run ${nsteps}
  run 972
WARNING: No fixes with time integration, atoms won't move (../verlet.cpp:60)
PPPM initialization ...
  using 12-bit tables for long-range coulomb (../kspace.cpp:340)
  G vector (1/distance) = 0.29499882
  grid = 45 45 250
  stencil order = 5
  estimated absolute RMS force accuracy = 0.00038505019
  estimated relative force accuracy = 1.1595672e-06
  using double precision KISS FFT
  3d grid and FFT values/proc = 554040 378675
  generated 45 of 45 mixed pair_coeff terms from arithmetic mixing rule
Per MPI rank memory allocation (min/avg/max) = 24.36 | 35.12 | 63.74 Mbytes
Step v_ftemp PotEng f_swp[1] f_swp[2] 
   81648            3   -792525.59            0            0 
   81700            3   -792525.59           52            0 
   81800            3   -792525.59          152            0 
   81900            3   -792525.59          252            0 
   82000            3   -792525.59          352            0 
   82100            3   -792525.59          452            0 
   82200            3   -792525.59          552            0 
   82300            3   -792525.59          652            0 
   82400            3   -792525.59          752            0 
   82500            3   -792525.59          852            0 
   82600            3   -792525.59          952            0 
   82620            3   -792525.59          972            0 
Loop time of 268.771 on 4 procs for 972 steps with 4356 atoms

Performance: 0.156 ns/day, 153.618 hours/ns, 3.616 timesteps/s
94.2% CPU use with 4 MPI tasks x no OpenMP threads

MPI task timing breakdown:
Section |  min time  |  avg time  |  max time  |%varavg| %total
---------------------------------------------------------------
Pair    | 3.1372     | 7.5168     | 11.148     | 123.1 |  2.80
Bond    | 0.001903   | 0.0044744  | 0.011779   |   6.3 |  0.00
Kspace  | 63.747     | 67.38      | 71.759     |  41.1 | 25.07
Neigh   | 16.834     | 16.859     | 16.895     |   0.6 |  6.27
Comm    | 0.41713    | 0.46502    | 0.49342    |   4.6 |  0.17
Output  | 0.0002085  | 0.00046587 | 0.0010954  |   0.0 |  0.00
Modify  | 176.51     | 176.52     | 176.53     |   0.1 | 65.68
Other   |            | 0.02453    |            |       |  0.01

Nlocal:           1089 ave        1494 max         702 min
Histogram: 2 0 0 0 0 0 0 0 1 1
Nghost:           9053 ave       12006 max        5884 min
Histogram: 2 0 0 0 0 0 0 0 0 2
Neighs:         542692 ave      798273 max      221438 min
Histogram: 1 0 1 0 0 0 0 0 0 2

Total # of neighbors = 2170766
Ave neighs/atom = 498.3393
Ave special neighs/atom = 0.05785124
Neighbor list builds = 1944
Dangerous builds = 0

  unfix swp
  thermo_style custom step temp pe

next temp
jump SELF minimize_temp

  variable ftemp equal v_temp

  # Electrostatic relaxation
  fix swp swpFe atom/swap 1 1 ${rand} ${temp} ke no types 6 7
  fix swp swpFe atom/swap 1 1 7974133 ${temp} ke no types 6 7
  fix swp swpFe atom/swap 1 1 7974133 2 ke no types 6 7
  thermo 100
  thermo_style custom step v_ftemp pe f_swp[1] f_swp[2]
  run ${nsteps}
  run 972
WARNING: No fixes with time integration, atoms won't move (../verlet.cpp:60)
PPPM initialization ...
  using 12-bit tables for long-range coulomb (../kspace.cpp:340)
  G vector (1/distance) = 0.29499882
  grid = 45 45 250
  stencil order = 5
  estimated absolute RMS force accuracy = 0.00038505019
  estimated relative force accuracy = 1.1595672e-06
  using double precision KISS FFT
  3d grid and FFT values/proc = 554040 378675
  generated 45 of 45 mixed pair_coeff terms from arithmetic mixing rule
Per MPI rank memory allocation (min/avg/max) = 24.36 | 35.12 | 63.74 Mbytes
Step v_ftemp PotEng f_swp[1] f_swp[2] 
   82620            2   -792525.59            0            0 
   82700            2   -792525.59           80            0 
   82800            2   -792525.59          180            0 
   82900            2   -792525.59          280            0 
   83000            2   -792525.59          380            0 
   83100            2   -792525.59          480            0 
   83200            2   -792525.59          580            0 
   83300            2   -792525.59          680            0 
   83400            2   -792525.59          780            0 
   83500            2   -792525.59          880            0 
   83592            2   -792525.59          972            0 
Loop time of 267.696 on 4 procs for 972 steps with 4356 atoms

Performance: 0.157 ns/day, 153.004 hours/ns, 3.631 timesteps/s
94.2% CPU use with 4 MPI tasks x no OpenMP threads

MPI task timing breakdown:
Section |  min time  |  avg time  |  max time  |%varavg| %total
---------------------------------------------------------------
Pair    | 3.1196     | 7.393      | 10.871     | 120.8 |  2.76
Bond    | 0.0014663  | 0.0040331  | 0.011388   |   6.7 |  0.00
Kspace  | 63.976     | 67.457     | 71.729     |  40.0 | 25.20
Neigh   | 17.024     | 17.052     | 17.095     |   0.7 |  6.37
Comm    | 0.47837    | 0.53684    | 0.57065    |   5.1 |  0.20
Output  | 0.0002012  | 0.00051046 | 0.0012653  |   0.0 |  0.00
Modify  | 175.21     | 175.23     | 175.24     |   0.1 | 65.46
Other   |            | 0.02645    |            |       |  0.01

Nlocal:           1089 ave        1494 max         702 min
Histogram: 2 0 0 0 0 0 0 0 1 1
Nghost:           9053 ave       12006 max        5884 min
Histogram: 2 0 0 0 0 0 0 0 0 2
Neighs:         542692 ave      798273 max      221438 min
Histogram: 1 0 1 0 0 0 0 0 0 2

Total # of neighbors = 2170766
Ave neighs/atom = 498.3393
Ave special neighs/atom = 0.05785124
Neighbor list builds = 1944
Dangerous builds = 0

  unfix swp
  thermo_style custom step temp pe

next temp
jump SELF minimize_temp

  variable ftemp equal v_temp

  # Electrostatic relaxation
  fix swp swpFe atom/swap 1 1 ${rand} ${temp} ke no types 6 7
  fix swp swpFe atom/swap 1 1 9540448 ${temp} ke no types 6 7
  fix swp swpFe atom/swap 1 1 9540448 1 ke no types 6 7
  thermo 100
  thermo_style custom step v_ftemp pe f_swp[1] f_swp[2]
  run ${nsteps}
  run 972
WARNING: No fixes with time integration, atoms won't move (../verlet.cpp:60)
PPPM initialization ...
  using 12-bit tables for long-range coulomb (../kspace.cpp:340)
  G vector (1/distance) = 0.29499882
  grid = 45 45 250
  stencil order = 5
  estimated absolute RMS force accuracy = 0.00038505019
  estimated relative force accuracy = 1.1595672e-06
  using double precision KISS FFT
  3d grid and FFT values/proc = 554040 378675
  generated 45 of 45 mixed pair_coeff terms from arithmetic mixing rule
Per MPI rank memory allocation (min/avg/max) = 24.36 | 35.12 | 63.74 Mbytes
Step v_ftemp PotEng f_swp[1] f_swp[2] 
   83592            1   -792525.59            0            0 
   83600            1   -792525.59            8            0 
   83700            1   -792525.59          108            0 
   83800            1   -792525.59          208            0 
   83900            1   -792525.59          308            0 
   84000            1   -792525.59          408            0 
   84100            1   -792525.59          508            0 
   84200            1   -792525.59          608            0 
   84300            1   -792525.59          708            0 
   84400            1   -792525.59          808            0 
   84500            1   -792525.59          908            0 
   84564            1   -792525.59          972            0 
Loop time of 265.751 on 4 procs for 972 steps with 4356 atoms

Performance: 0.158 ns/day, 151.893 hours/ns, 3.658 timesteps/s
94.3% CPU use with 4 MPI tasks x no OpenMP threads

MPI task timing breakdown:
Section |  min time  |  avg time  |  max time  |%varavg| %total
---------------------------------------------------------------
Pair    | 3.1893     | 7.5069     | 11.113     | 121.6 |  2.82
Bond    | 0.0017215  | 0.0045413  | 0.012423   |   6.8 |  0.00
Kspace  | 62.52      | 66.127     | 70.442     |  41.0 | 24.88
Neigh   | 16.873     | 16.899     | 16.938     |   0.6 |  6.36
Comm    | 0.4427     | 0.49419    | 0.52428    |   4.8 |  0.19
Output  | 0.00023918 | 0.00051238 | 0.0011394  |   0.0 |  0.00
Modify  | 174.68     | 174.69     | 174.7      |   0.1 | 65.73
Other   |            | 0.02848    |            |       |  0.01

Nlocal:           1089 ave        1494 max         702 min
Histogram: 2 0 0 0 0 0 0 0 1 1
Nghost:           9053 ave       12006 max        5884 min
Histogram: 2 0 0 0 0 0 0 0 0 2
Neighs:         542692 ave      798273 max      221438 min
Histogram: 1 0 1 0 0 0 0 0 0 2

Total # of neighbors = 2170766
Ave neighs/atom = 498.3393
Ave special neighs/atom = 0.05785124
Neighbor list builds = 1944
Dangerous builds = 0

  unfix swp
  thermo_style custom step temp pe

next temp
jump SELF minimize_temp

write_data 001-dbt_3x3_${layer}L_${type}_lqeq.data
write_data 001-dbt_3x3_21L_${type}_lqeq.data
write_data 001-dbt_3x3_21L_fa_tet_full_qeq_lqeq.data
System init for write_data ...
PPPM initialization ...
  using 12-bit tables for long-range coulomb (../kspace.cpp:340)
  G vector (1/distance) = 0.29499882
  grid = 45 45 250
  stencil order = 5
  estimated absolute RMS force accuracy = 0.00038505019
  estimated relative force accuracy = 1.1595672e-06
  using double precision KISS FFT
  3d grid and FFT values/proc = 554040 378675
  generated 45 of 45 mixed pair_coeff terms from arithmetic mixing rule

# Full minimization
minimize 1.0e-6 1.0e-9 1000 10000
PPPM initialization ...
  using 12-bit tables for long-range coulomb (../kspace.cpp:340)
  G vector (1/distance) = 0.29499882
  grid = 45 45 250
  stencil order = 5
  estimated absolute RMS force accuracy = 0.00038505019
  estimated relative force accuracy = 1.1595672e-06
  using double precision KISS FFT
  3d grid and FFT values/proc = 554040 378675
  generated 45 of 45 mixed pair_coeff terms from arithmetic mixing rule
Per MPI rank memory allocation (min/avg/max) = 25.48 | 36.25 | 64.86 Mbytes
Step Temp PotEng 
   84564            0   -792525.59 
   84600            0   -809368.07 
   84700            0   -810203.05 
   84759            0    -810432.3 
Loop time of 20.6332 on 4 procs for 195 steps with 4356 atoms

94.7% CPU use with 4 MPI tasks x no OpenMP threads

Minimization stats:
  Stopping criterion = energy tolerance
  Energy initial, next-to-last, final = 
      -792525.59435546  -810431.711281816  -810432.303263806
  Force two-norm initial, final = 4877.8015 32.850459
  Force max component initial, final = 174.31537 6.5920424
  Final line search alpha, max atom move = 0.0050136344 0.033050091
  Iterations, force evaluations = 195 383

MPI task timing breakdown:
Section |  min time  |  avg time  |  max time  |%varavg| %total
---------------------------------------------------------------
Pair    | 1.6425     | 3.7934     | 5.5466     |  84.1 | 18.38
Bond    | 0.0003658  | 0.0013771  | 0.0042215  |   4.4 |  0.01
Kspace  | 14.889     | 16.642     | 18.792     |  40.1 | 80.66
Neigh   | 0.12195    | 0.1221     | 0.1223     |   0.0 |  0.59
Comm    | 0.052838   | 0.056055   | 0.059193   |   1.1 |  0.27
Output  | 3.6947e-05 | 4.1921e-05 | 5.6345e-05 |   0.0 |  0.00
Modify  | 0          | 0          | 0          |   0.0 |  0.00
Other   |            | 0.01795    |            |       |  0.09

Nlocal:           1089 ave        1487 max         702 min
Histogram: 2 0 0 0 0 0 0 0 1 1
Nghost:        8974.75 ave       11937 max        5802 min
Histogram: 1 1 0 0 0 0 0 0 0 2
Neighs:         537614 ave      779454 max      220753 min
Histogram: 1 0 0 1 0 0 0 0 0 2

Total # of neighbors = 2150458
Ave neighs/atom = 493.67723
Ave special neighs/atom = 0.05785124
Neighbor list builds = 8
Dangerous builds = 0

write_data 001-dbt_3x3_${layer}L_${type}_lqeq_min.data
write_data 001-dbt_3x3_21L_${type}_lqeq_min.data
write_data 001-dbt_3x3_21L_fa_tet_full_qeq_lqeq_min.data
System init for write_data ...
PPPM initialization ...
  using 12-bit tables for long-range coulomb (../kspace.cpp:340)
  G vector (1/distance) = 0.29499882
  grid = 45 45 250
  stencil order = 5
  estimated absolute RMS force accuracy = 0.00038505019
  estimated relative force accuracy = 1.1595672e-06
  using double precision KISS FFT
  3d grid and FFT values/proc = 554040 378675
  generated 45 of 45 mixed pair_coeff terms from arithmetic mixing rule
Total wall time: 6:28:00
