LAMMPS data file via write_data, version 17 Feb 2022, timestep = 0

124 atoms
8 atom types
0 bonds
4 bond types
0 angles
4 angle types
0 dihedrals
2 dihedral types
0 impropers
1 improper types

0 8.48 xlo xhi
0 8.48 ylo yhi
0 84.8 zlo zhi

Masses

1 12.011
2 1.008
3 15.9994
4 15.9994
5 1.008
6 55.845
7 55.845
8 15.9994

Pair Coeffs # lj/cut/coul/cut

1 0.0988 3.31521
2 0.0161 2.4473
3 0.1463 3.04812
4 0.093 3.24287
5 0.0047 0.537925
6 9.0298e-07 4.9062
7 9.0298e-07 4.9062
8 0.1554 3.16554

Atoms # full

1 0 6 1.05 0.258417 4.498416999999999 76.578417 0 0 0
2 0 7 1.575 6.618416999999999 2.3784170000000002 76.578417 0 0 0
3 0 7 1.575 2.3784170000000002 6.618416999999999 76.578417 0 0 0
4 0 7 1.575 4.498416999999999 0.258417 76.578417 0 0 0
5 0 8 -1.05 6.581580999999999 0.295252 76.615252 0 0 0
6 0 8 -1.05 0.295252 6.581580999999999 76.615252 0 0 0
7 0 8 -1.05 4.535251999999999 2.3415820000000003 76.615252 0 0 0
8 0 8 -1.05 2.3415820000000003 4.535251999999999 76.615252 0 0 0
9 0 8 -1.05 6.581580999999999 6.581580999999999 74.421581 0 0 0
10 0 8 -1.05 2.415252 2.415252 70.25525199999998 0 0 0
11 0 8 -1.05 6.655251999999999 4.461582 76.54158199999999 0 0 0
12 0 8 -1.05 2.3415820000000003 4.535251999999999 68.135252 0 0 0
13 0 8 -1.05 0.22158200000000006 6.655251999999999 72.30158199999998 1 0 0
14 0 8 -1.05 0.295252 2.3415820000000003 72.37525199999999 0 0 0
15 0 8 -1.05 4.461582 0.22158200000000006 74.49525199999998 0 1 0
16 0 8 -1.05 4.535251999999999 0.295252 70.18158199999998 0 0 0
17 0 8 -1.05 2.3415820000000003 6.581580999999999 70.18158199999998 0 0 0
18 0 8 -1.05 6.655251999999999 2.415252 74.49525199999998 0 0 0
19 0 8 -1.05 4.535251999999999 2.3415820000000003 68.135252 0 0 0
20 0 8 -1.05 4.461582 6.655251999999999 76.54158199999999 0 0 0
21 0 8 -1.05 6.581580999999999 4.535251999999999 72.37525199999999 0 0 0
22 0 8 -1.05 2.415252 4.461582 72.30158199999998 0 0 0
23 0 8 -1.05 0.295252 0.295252 74.421581 0 0 0
24 0 8 -1.05 0.22158200000000006 0.22158200000000006 70.25525199999998 1 1 0
25 0 8 -1.05 6.581580999999999 2.3415820000000003 70.18158199999998 0 0 0
26 0 8 -1.05 2.415252 6.655251999999999 74.49525199999998 0 0 0
27 0 8 -1.05 2.3415820000000003 0.295252 72.37525199999999 0 0 0
28 0 8 -1.05 6.655251999999999 0.22158200000000006 72.30158199999998 0 1 0
29 0 8 -1.05 4.535251999999999 4.535251999999999 74.421581 0 0 0
30 0 8 -1.05 4.461582 4.461582 70.25525199999998 0 0 0
31 0 8 -1.05 0.295252 6.581580999999999 68.135252 0 0 0
32 0 8 -1.05 0.22158200000000006 2.415252 76.54158199999999 1 0 0
33 0 8 -1.05 2.3415820000000003 2.3415820000000003 74.421581 0 0 0
34 0 8 -1.05 6.655251999999999 6.655251999999999 70.25525199999998 0 0 0
35 0 8 -1.05 0.295252 4.535251999999999 70.18158199999998 0 0 0
36 0 8 -1.05 0.22158200000000006 4.461582 74.49525199999998 1 0 0
37 0 8 -1.05 4.535251999999999 6.581580999999999 72.37525199999999 0 0 0
38 0 8 -1.05 4.461582 2.415252 72.30158199999998 0 0 0
39 0 8 -1.05 6.581580999999999 0.295252 68.135252 0 0 0
40 0 8 -1.05 2.415252 0.22158200000000006 76.54158199999999 0 1 0
41 0 7 1.575 4.498416999999999 4.498416999999999 72.33841699999998 0 0 0
42 0 7 1.575 2.3784170000000002 6.618416999999999 68.09841699999998 0 0 0
43 0 6 1.05 6.618416999999999 2.3784170000000002 68.09841699999998 0 0 0
44 0 7 1.575 0.258417 0.258417 72.33841699999998 0 0 0
45 0 7 1.575 6.618416999999999 0.258417 70.21841699999999 0 0 0
46 0 7 1.575 2.3784170000000002 0.258417 74.458417 0 0 0
47 0 7 1.575 4.498416999999999 6.618416999999999 74.458417 0 0 0
48 0 7 1.575 4.498416999999999 2.3784170000000002 70.21841699999999 0 0 0
49 0 7 1.575 0.258417 4.498416999999999 68.09841699999998 0 0 0
50 0 6 1.05 0.258417 2.3784170000000002 74.458417 0 0 0
51 0 7 1.575 0.258417 6.618416999999999 70.21841699999999 0 0 0
52 0 7 1.575 2.3784170000000002 4.498416999999999 70.21841699999999 0 0 0
53 0 6 1.05 6.618416999999999 4.498416999999999 74.458417 0 0 0
54 0 7 1.575 6.618416999999999 6.618416999999999 72.33841699999998 0 0 0
55 0 7 1.575 2.3784170000000002 2.3784170000000002 72.33841699999998 0 0 0
56 0 6 1.05 4.498416999999999 0.258417 68.09841699999998 0 0 0
57 0 7 1.575 3.4384170000000003 3.4384170000000003 75.51841699999999 0 0 0
58 0 7 1.575 5.5584169999999995 5.5584169999999995 69.158417 0 0 0
59 0 7 1.575 7.678417 3.4384170000000003 71.27841699999999 0 0 0
60 0 7 1.575 1.3184170000000002 5.5584169999999995 73.398417 0 0 0
61 0 7 1.575 3.4384170000000003 7.678417 71.27841699999999 0 0 0
62 0 7 1.575 5.5584169999999995 1.3184170000000002 73.398417 0 0 0
63 0 7 1.575 7.678417 7.678417 75.51841699999999 0 0 0
64 0 7 1.575 1.3184170000000002 1.3184170000000002 69.158417 0 0 0
65 0 8 -1.05 6.581580999999999 6.581580999999999 65.94158099999999 0 0 0
66 0 8 -1.05 2.415252 2.415252 61.775251999999995 0 0 0
67 0 8 -1.05 6.655251999999999 4.461582 68.06158199999999 0 0 0
68 0 8 -1.05 2.3415820000000003 4.535251999999999 59.655252 0 0 0
69 0 8 -1.05 0.22158200000000006 6.655251999999999 63.82158199999999 1 0 0
70 0 8 -1.05 0.295252 2.3415820000000003 63.89525199999999 0 0 0
71 0 8 -1.05 4.461582 0.22158200000000006 66.01525199999999 0 1 0
72 0 8 -1.05 4.535251999999999 0.295252 61.701581999999995 0 0 0
73 0 8 -1.05 2.3415820000000003 6.581580999999999 61.701581999999995 0 0 0
74 0 8 -1.05 6.655251999999999 2.415252 66.01525199999999 0 0 0
75 0 8 -1.05 4.535251999999999 2.3415820000000003 59.655252 0 0 0
76 0 8 -1.05 4.461582 6.655251999999999 68.06158199999999 0 0 0
77 0 8 -1.05 6.581580999999999 4.535251999999999 63.89525199999999 0 0 0
78 0 8 -1.05 2.415252 4.461582 63.82158199999999 0 0 0
79 0 8 -1.05 0.295252 0.295252 65.94158099999999 0 0 0
80 0 8 -1.05 0.22158200000000006 0.22158200000000006 61.775251999999995 1 1 0
81 0 8 -1.05 6.581580999999999 2.3415820000000003 61.701581999999995 0 0 0
82 0 8 -1.05 2.415252 6.655251999999999 66.01525199999999 0 0 0
83 0 8 -1.05 2.3415820000000003 0.295252 63.89525199999999 0 0 0
84 0 8 -1.05 6.655251999999999 0.22158200000000006 63.82158199999999 0 1 0
85 0 8 -1.05 4.535251999999999 4.535251999999999 65.94158099999999 0 0 0
86 0 8 -1.05 4.461582 4.461582 61.775251999999995 0 0 0
87 0 8 -1.05 0.295252 6.581580999999999 59.655252 0 0 0
88 0 8 -1.05 0.22158200000000006 2.415252 68.06158199999999 1 0 0
89 0 8 -1.05 2.3415820000000003 2.3415820000000003 65.94158099999999 0 0 0
90 0 8 -1.05 6.655251999999999 6.655251999999999 61.775251999999995 0 0 0
91 0 8 -1.05 0.295252 4.535251999999999 61.701581999999995 0 0 0
92 0 8 -1.05 0.22158200000000006 4.461582 66.01525199999999 1 0 0
93 0 8 -1.05 4.535251999999999 6.581580999999999 63.89525199999999 0 0 0
94 0 8 -1.05 4.461582 2.415252 63.82158199999999 0 0 0
95 0 8 -1.05 6.581580999999999 0.295252 59.655252 0 0 0
96 0 8 -1.05 2.415252 0.22158200000000006 68.06158199999999 0 1 0
97 0 6 1.05 4.498416999999999 4.498416999999999 63.858416999999996 0 0 0
98 0 7 1.575 2.3784170000000002 6.618416999999999 59.618416999999994 0 0 0
99 0 7 1.575 6.618416999999999 2.3784170000000002 59.618416999999994 0 0 0
100 0 6 1.05 0.258417 0.258417 63.858416999999996 0 0 0
101 0 6 1.05 6.618416999999999 0.258417 61.73841699999999 0 0 0
102 0 7 1.575 2.3784170000000002 0.258417 65.978417 0 0 0
103 0 7 1.575 4.498416999999999 6.618416999999999 65.978417 0 0 0
104 0 7 1.575 4.498416999999999 2.3784170000000002 61.73841699999999 0 0 0
105 0 7 1.575 0.258417 4.498416999999999 59.618416999999994 0 0 0
106 0 6 1.05 0.258417 2.3784170000000002 65.978417 0 0 0
107 0 7 1.575 0.258417 6.618416999999999 61.73841699999999 0 0 0
108 0 6 1.05 2.3784170000000002 4.498416999999999 61.73841699999999 0 0 0
109 0 7 1.575 6.618416999999999 4.498416999999999 65.978417 0 0 0
110 0 7 1.575 6.618416999999999 6.618416999999999 63.858416999999996 0 0 0
111 0 7 1.575 2.3784170000000002 2.3784170000000002 63.858416999999996 0 0 0
112 0 7 1.575 4.498416999999999 0.258417 59.618416999999994 0 0 0
113 0 7 1.575 3.4384170000000003 3.4384170000000003 67.038417 0 0 0
114 0 7 1.575 5.5584169999999995 5.5584169999999995 60.678416999999996 0 0 0
115 0 7 1.575 7.678417 3.4384170000000003 62.798417 0 0 0
116 0 7 1.575 1.3184170000000002 5.5584169999999995 64.91841699999998 0 0 0
117 0 6 1.05 3.4384170000000003 7.678417 62.798417 0 0 0
118 0 6 1.05 5.5584169999999995 1.3184170000000002 64.91841699999998 0 0 0
119 0 7 1.575 7.678417 7.678417 67.038417 0 0 0
120 0 7 1.575 1.3184170000000002 1.3184170000000002 60.678416999999996 0 0 0
121 0 8 -1.05 6.655251999999999 4.461582 59.581582000000004 0 0 0
122 0 8 -1.05 4.461582 6.655251999999999 59.581582000000004 0 0 0
123 0 8 -1.05 0.22158200000000006 2.415252 59.581582000000004 1 0 0
124 0 8 -1.05 2.415252 0.22158200000000006 59.581582000000004 0 1 0

Velocities

1 0 0 0
2 0 0 0
3 0 0 0
4 0 0 0
5 0 0 0
6 0 0 0
7 0 0 0
8 0 0 0
9 0 0 0
10 0 0 0
11 0 0 0
12 0 0 0
13 0 0 0
14 0 0 0
15 0 0 0
16 0 0 0
17 0 0 0
18 0 0 0
19 0 0 0
20 0 0 0
21 0 0 0
22 0 0 0
23 0 0 0
24 0 0 0
25 0 0 0
26 0 0 0
27 0 0 0
28 0 0 0
29 0 0 0
30 0 0 0
31 0 0 0
32 0 0 0
33 0 0 0
34 0 0 0
35 0 0 0
36 0 0 0
37 0 0 0
38 0 0 0
39 0 0 0
40 0 0 0
41 0 0 0
42 0 0 0
43 0 0 0
44 0 0 0
45 0 0 0
46 0 0 0
47 0 0 0
48 0 0 0
49 0 0 0
50 0 0 0
51 0 0 0
52 0 0 0
53 0 0 0
54 0 0 0
55 0 0 0
56 0 0 0
57 0 0 0
58 0 0 0
59 0 0 0
60 0 0 0
61 0 0 0
62 0 0 0
63 0 0 0
64 0 0 0
65 0 0 0
66 0 0 0
67 0 0 0
68 0 0 0
69 0 0 0
70 0 0 0
71 0 0 0
72 0 0 0
73 0 0 0
74 0 0 0
75 0 0 0
76 0 0 0
77 0 0 0
78 0 0 0
79 0 0 0
80 0 0 0
81 0 0 0
82 0 0 0
83 0 0 0
84 0 0 0
85 0 0 0
86 0 0 0
87 0 0 0
88 0 0 0
89 0 0 0
90 0 0 0
91 0 0 0
92 0 0 0
93 0 0 0
94 0 0 0
95 0 0 0
96 0 0 0
97 0 0 0
98 0 0 0
99 0 0 0
100 0 0 0
101 0 0 0
102 0 0 0
103 0 0 0
104 0 0 0
105 0 0 0
106 0 0 0
107 0 0 0
108 0 0 0
109 0 0 0
110 0 0 0
111 0 0 0
112 0 0 0
113 0 0 0
114 0 0 0
115 0 0 0
116 0 0 0
117 0 0 0
118 0 0 0
119 0 0 0
120 0 0 0
121 0 0 0
122 0 0 0
123 0 0 0
124 0 0 0
