LAMMPS data file via write_data, version 17 Feb 2022, timestep = 2000

1332 atoms
10 atom types
180 bonds
6 bond types
324 angles
6 angle types
0 dihedrals
2 dihedral types
36 impropers
2 improper types

0 25.44 xlo xhi
0 25.44 ylo yhi
35.929417 100.267417 zlo zhi

Masses

1 12.011
2 1.008
3 15.9994
4 15.9994
5 1.008
6 55.845
7 55.845
8 15.9994
9 15.9994
10 1.008

Pair Coeffs # lj/cut/coul/cut

1 0.0988 3.31521
2 0.0161 2.4473
3 0.1463 3.04812
4 0.093 3.24287
5 0.0047 0.537925
6 9.0298e-07 4.9062
7 9.0298e-07 4.9062
8 0.1554 3.16554
9 0.1554 3.16554
10 0 0

Bond Coeffs # harmonic

1 361.8 1.105
2 652.57 1.218
3 383.13 1.351
4 563.51 0.973
5 554.135 1
6 0 2.08

Angle Coeffs # harmonic

1 51.617 106.55
2 65.93 123.65
3 65.262 109.49
4 115.745 122.1
5 118.817 130.25
6 30 109.47

Dihedral Coeffs # fourier

1 1 2.3 2 180
2 2 2.3 2 180 1.9 1 0

Improper Coeffs # cvff

1 10.5 -1 2
2 10.5 -1 2

Atoms # full

22 0 1 0.731 3.438 7.678 57.029417 0 0 0
21 0 2 -0.123 3.438 7.678 55.929417 0 0 0
1048 0 1 0.731 7.500761 3.4590229999999984 57.029417 0 1 0
1047 0 2 -0.123 7.500761 3.4590229999999984 55.929417 0 1 0
170 0 1 0.731 11.918000000000001 7.678 57.029417 0 0 0
169 0 2 -0.123 11.918000000000001 7.678 55.929417 0 0 0
1196 0 1 0.731 15.980761000000001 3.4590229999999984 57.029417 0 1 0
1195 0 2 -0.123 15.980761000000001 3.4590229999999984 55.929417 0 1 0
900 0 1 0.731 24.460761 3.4590229999999984 57.029417 -1 1 0
899 0 2 -0.123 24.460761 3.4590229999999984 55.929417 -1 1 0
318 0 1 0.731 20.398 7.678 57.029417 0 0 0
317 0 2 -0.123 20.398 7.678 55.929417 0 0 0
466 0 1 0.731 3.438 16.158 57.029417 0 0 0
465 0 2 -0.123 3.438 16.158 55.929417 0 0 0
160 0 1 0.731 7.500761 11.939022999999999 57.029417 0 0 0
159 0 2 -0.123 7.500761 11.939022999999999 55.929417 0 0 0
614 0 1 0.731 11.918000000000001 16.158 57.029417 0 0 0
613 0 2 -0.123 11.918000000000001 16.158 55.929417 0 0 0
308 0 1 0.731 15.980761000000001 11.939022999999999 57.029417 0 0 0
307 0 2 -0.123 15.980761000000001 11.939022999999999 55.929417 0 0 0
12 0 1 0.731 24.460761 11.939022999999999 57.029417 -1 0 0
11 0 2 -0.123 24.460761 11.939022999999999 55.929417 -1 0 0
762 0 1 0.731 20.398 16.158 57.029417 0 0 0
761 0 2 -0.123 20.398 16.158 55.929417 0 0 0
910 0 1 0.731 3.438 24.638 57.029417 0 0 0
909 0 2 -0.123 3.438 24.638 55.929417 0 0 0
604 0 1 0.731 7.500761 20.419023 57.029417 0 0 0
603 0 2 -0.123 7.500761 20.419023 55.929417 0 0 0
1058 0 1 0.731 11.918000000000001 24.638 57.029417 0 0 0
1057 0 2 -0.123 11.918000000000001 24.638 55.929417 0 0 0
752 0 1 0.731 15.980761000000001 20.419023 57.029417 0 0 0
751 0 2 -0.123 15.980761000000001 20.419023 55.929417 0 0 0
456 0 1 0.731 24.460761 20.419023 57.029417 -1 0 0
455 0 2 -0.123 24.460761 20.419023 55.929417 -1 0 0
1206 0 1 0.731 20.398 24.638 57.029417 0 0 0
1205 0 2 -0.123 20.398 24.638 55.929417 0 0 0
41 0 8 -1.05 0.11801299999999859 4.556274999999999 61.701581999999995 0 0 0
16 0 9 -0.975 0.11801299999999859 6.6026050000000005 59.655252 0 0 0
42 0 8 -1.05 2.1643419999999987 6.6026050000000005 61.701581999999995 0 0 0
39 0 8 -1.05 0.04434299999999958 6.676275 63.82158199999999 0 0 0
18 0 9 -0.975 2.1643419999999987 4.556274999999999 59.655252 0 0 0
19 0 7 1.575 2.2011779999999987 6.6394400000000005 59.618416999999994 0 0 0
43 0 7 1.575 2.2011779999999987 4.5194399999999995 61.73841699999999 0 0 0
40 0 6 1.05 0.08117799999999864 6.6394400000000005 61.73841699999999 0 0 0
15 0 6 1.05 0.08117799999999864 4.5194399999999995 59.618416999999994 0 0 0
45 0 7 1.575 3.2611779999999992 7.69944 62.798417 0 0 0
23 0 8 -1.05 4.284343 6.676275 59.581582000000004 0 0 0
20 0 3 -0.804 2.378 6.618 57.729417 0 0 0
17 0 10 0.425 2.0999999999999996 5.3 59.136417 0 0 0
13 0 10 0.425 0.040000000000000036 7.4799999999999995 59.136417 0 0 0
920 0 8 -1.05 4.284343 2.4362749999999984 63.82158199999999 0 1 0
917 0 8 -1.05 2.1643419999999987 0.3162749999999974 63.89525199999999 0 1 0
934 0 8 -1.05 4.284343 4.4826049999999995 61.775251999999995 0 1 0
932 0 8 -1.05 2.2380129999999987 4.4826049999999995 63.82158199999999 0 1 0
913 0 8 -1.05 0.04434299999999958 0.24260500000000107 61.775251999999995 0 1 0
919 0 8 -1.05 2.2380129999999987 2.4362749999999984 61.775251999999995 0 1 0
915 0 8 -1.05 0.11801299999999859 2.3626039999999975 63.89525199999999 0 1 0
914 0 7 1.575 0.08117799999999864 0.27943999999999747 63.858416999999996 0 1 0
918 0 7 1.575 2.2011779999999987 2.3994399999999985 63.858416999999996 0 1 0
916 0 7 1.575 1.1411779999999991 1.3394399999999997 60.678416999999996 0 1 0
890 0 8 -1.05 2.2380129999999987 0.24260500000000107 59.581582000000004 0 1 0
889 0 8 -1.05 0.04434299999999958 2.4362749999999984 59.581582000000004 0 1 0
902 0 3 -0.804 0.08076099999999897 4.519023000000001 57.729417 0 1 0
894 0 3 -0.804 4.498 0.2579999999999991 57.729417 0 1 0
200 0 8 -1.05 6.478013000000001 6.676275 61.775251999999995 0 0 0
196 0 8 -1.05 4.358013 6.6026050000000005 63.89525199999999 0 0 0
198 0 8 -1.05 6.404343000000001 4.556274999999999 63.89525199999999 0 0 0
195 0 7 1.575 4.321178 4.5194399999999995 63.858416999999996 0 0 0
199 0 7 1.575 6.441178000000001 6.6394400000000005 63.858416999999996 0 0 0
197 0 7 1.575 5.381178 5.57944 60.678416999999996 0 0 0
1044 0 9 -0.975 6.404343000000001 0.3162749999999974 59.655252 0 1 0
1071 0 8 -1.05 6.404343000000001 2.3626039999999975 61.701581999999995 0 1 0
1073 0 8 -1.05 6.478013000000001 0.24260500000000107 63.82158199999999 0 1 0
1041 0 9 -0.975 4.358013 2.3626039999999975 59.655252 0 1 0
1070 0 8 -1.05 4.358013 0.3162749999999974 61.701581999999995 0 1 0
1046 0 6 1.05 6.441178000000001 2.3994399999999985 59.618416999999994 0 1 0
1040 0 6 1.05 4.321178 0.27943999999999747 59.618416999999994 0 1 0
1069 0 6 1.05 4.321178 2.3994399999999985 61.73841699999999 0 1 0
1072 0 6 1.05 6.441178000000001 0.27943999999999747 61.73841699999999 0 1 0
1074 0 7 1.575 7.501178 3.459439999999997 62.798417 0 1 0
1060 0 8 -1.05 6.478013000000001 4.4826049999999995 59.581582000000004 0 1 0
1045 0 3 -0.804 6.440761 2.3990229999999997 57.729417 0 1 0
1043 0 10 0.425 6.162761 1.0810229999999983 59.136417 0 1 0
1039 0 10 0.425 4.102761 3.261022999999998 59.136417 0 1 0
189 0 8 -1.05 8.598012999999998 4.556274999999999 61.701581999999995 0 0 0
164 0 9 -0.975 8.598012999999998 6.6026050000000005 59.655252 0 0 0
190 0 8 -1.05 10.644341999999998 6.6026050000000005 61.701581999999995 0 0 0
187 0 8 -1.05 8.524343 6.676275 63.82158199999999 0 0 0
166 0 9 -0.975 10.644341999999998 4.556274999999999 59.655252 0 0 0
167 0 7 1.575 10.681178 6.6394400000000005 59.618416999999994 0 0 0
191 0 7 1.575 10.681178 4.5194399999999995 61.73841699999999 0 0 0
188 0 6 1.05 8.561177999999998 6.6394400000000005 61.73841699999999 0 0 0
163 0 6 1.05 8.561177999999998 4.5194399999999995 59.618416999999994 0 0 0
193 0 7 1.575 11.741178 7.69944 62.798417 0 0 0
171 0 8 -1.05 12.764343 6.676275 59.581582000000004 0 0 0
168 0 3 -0.804 10.858 6.618 57.729417 0 0 0
165 0 10 0.425 10.58 5.3 59.136417 0 0 0
161 0 10 0.425 8.52 7.4799999999999995 59.136417 0 0 0
1068 0 8 -1.05 12.764343 2.4362749999999984 63.82158199999999 0 1 0
1065 0 8 -1.05 10.644341999999998 0.3162749999999974 63.89525199999999 0 1 0
1082 0 8 -1.05 12.764343 4.4826049999999995 61.775251999999995 0 1 0
1080 0 8 -1.05 10.718013 4.4826049999999995 63.82158199999999 0 1 0
1061 0 8 -1.05 8.524343 0.24260500000000107 61.775251999999995 0 1 0
1067 0 8 -1.05 10.718013 2.4362749999999984 61.775251999999995 0 1 0
1063 0 8 -1.05 8.598012999999998 2.3626039999999975 63.89525199999999 0 1 0
1062 0 7 1.575 8.561177999999998 0.27943999999999747 63.858416999999996 0 1 0
1066 0 7 1.575 10.681178 2.3994399999999985 63.858416999999996 0 1 0
1064 0 7 1.575 9.621178 1.3394399999999997 60.678416999999996 0 1 0
1038 0 8 -1.05 10.718013 0.24260500000000107 59.581582000000004 0 1 0
1037 0 8 -1.05 8.524343 2.4362749999999984 59.581582000000004 0 1 0
1050 0 3 -0.804 8.560761 4.519023000000001 57.729417 0 1 0
1042 0 3 -0.804 12.978000000000002 0.2579999999999991 57.729417 0 1 0
348 0 8 -1.05 14.958013000000001 6.676275 61.775251999999995 0 0 0
344 0 8 -1.05 12.838013 6.6026050000000005 63.89525199999999 0 0 0
346 0 8 -1.05 14.884343000000001 4.556274999999999 63.89525199999999 0 0 0
343 0 7 1.575 12.801178 4.5194399999999995 63.858416999999996 0 0 0
347 0 7 1.575 14.921178000000001 6.6394400000000005 63.858416999999996 0 0 0
345 0 7 1.575 13.861178 5.57944 60.678416999999996 0 0 0
1192 0 9 -0.975 14.884343000000001 0.3162749999999974 59.655252 0 1 0
1219 0 8 -1.05 14.884343000000001 2.3626039999999975 61.701581999999995 0 1 0
1221 0 8 -1.05 14.958013000000001 0.24260500000000107 63.82158199999999 0 1 0
1189 0 9 -0.975 12.838013 2.3626039999999975 59.655252 0 1 0
1218 0 8 -1.05 12.838013 0.3162749999999974 61.701581999999995 0 1 0
1194 0 6 1.05 14.921178000000001 2.3994399999999985 59.618416999999994 0 1 0
1188 0 6 1.05 12.801178 0.27943999999999747 59.618416999999994 0 1 0
1217 0 6 1.05 12.801178 2.3994399999999985 61.73841699999999 0 1 0
1220 0 6 1.05 14.921178000000001 0.27943999999999747 61.73841699999999 0 1 0
1222 0 7 1.575 15.981178 3.459439999999997 62.798417 0 1 0
1208 0 8 -1.05 14.958013000000001 4.4826049999999995 59.581582000000004 0 1 0
1193 0 3 -0.804 14.920761 2.3990229999999997 57.729417 0 1 0
1191 0 10 0.425 14.642761 1.0810229999999983 59.136417 0 1 0
1187 0 10 0.425 12.582761000000001 3.261022999999998 59.136417 0 1 0
52 0 8 -1.05 23.438013 6.676275 61.775251999999995 -1 0 0
48 0 8 -1.05 21.318013 6.6026050000000005 63.89525199999999 -1 0 0
50 0 8 -1.05 23.364343 4.556274999999999 63.89525199999999 -1 0 0
47 0 7 1.575 21.281178 4.5194399999999995 63.858416999999996 -1 0 0
51 0 7 1.575 23.401178 6.6394400000000005 63.858416999999996 -1 0 0
49 0 7 1.575 22.341178 5.57944 60.678416999999996 -1 0 0
896 0 9 -0.975 23.364343 0.3162749999999974 59.655252 -1 1 0
923 0 8 -1.05 23.364343 2.3626039999999975 61.701581999999995 -1 1 0
925 0 8 -1.05 23.438013 0.24260500000000107 63.82158199999999 -1 1 0
893 0 9 -0.975 21.318013 2.3626039999999975 59.655252 -1 1 0
922 0 8 -1.05 21.318013 0.3162749999999974 61.701581999999995 -1 1 0
898 0 6 1.05 23.401178 2.3994399999999985 59.618416999999994 -1 1 0
892 0 6 1.05 21.281178 0.27943999999999747 59.618416999999994 -1 1 0
921 0 6 1.05 21.281178 2.3994399999999985 61.73841699999999 -1 1 0
924 0 6 1.05 23.401178 0.27943999999999747 61.73841699999999 -1 1 0
926 0 7 1.575 24.461178 3.459439999999997 62.798417 -1 1 0
912 0 8 -1.05 23.438013 4.4826049999999995 59.581582000000004 -1 1 0
897 0 3 -0.804 23.400761000000003 2.3990229999999997 57.729417 -1 1 0
895 0 10 0.425 23.122761 1.0810229999999983 59.136417 -1 1 0
891 0 10 0.425 21.062761000000002 3.261022999999998 59.136417 -1 1 0
337 0 8 -1.05 17.078013 4.556274999999999 61.701581999999995 0 0 0
312 0 9 -0.975 17.078013 6.6026050000000005 59.655252 0 0 0
338 0 8 -1.05 19.124342 6.6026050000000005 61.701581999999995 0 0 0
335 0 8 -1.05 17.004343 6.676275 63.82158199999999 0 0 0
314 0 9 -0.975 19.124342 4.556274999999999 59.655252 0 0 0
315 0 7 1.575 19.161178 6.6394400000000005 59.618416999999994 0 0 0
339 0 7 1.575 19.161178 4.5194399999999995 61.73841699999999 0 0 0
336 0 6 1.05 17.041178 6.6394400000000005 61.73841699999999 0 0 0
311 0 6 1.05 17.041178 4.5194399999999995 59.618416999999994 0 0 0
341 0 7 1.575 20.221178000000002 7.69944 62.798417 0 0 0
319 0 8 -1.05 21.244343 6.676275 59.581582000000004 0 0 0
316 0 3 -0.804 19.338 6.618 57.729417 0 0 0
313 0 10 0.425 19.060000000000002 5.3 59.136417 0 0 0
309 0 10 0.425 17 7.4799999999999995 59.136417 0 0 0
1216 0 8 -1.05 21.244343 2.4362749999999984 63.82158199999999 0 1 0
1213 0 8 -1.05 19.124342 0.3162749999999974 63.89525199999999 0 1 0
1230 0 8 -1.05 21.244343 4.4826049999999995 61.775251999999995 0 1 0
1228 0 8 -1.05 19.198013 4.4826049999999995 63.82158199999999 0 1 0
1209 0 8 -1.05 17.004343 0.24260500000000107 61.775251999999995 0 1 0
1215 0 8 -1.05 19.198013 2.4362749999999984 61.775251999999995 0 1 0
1211 0 8 -1.05 17.078013 2.3626039999999975 63.89525199999999 0 1 0
1210 0 7 1.575 17.041178 0.27943999999999747 63.858416999999996 0 1 0
1214 0 7 1.575 19.161178 2.3994399999999985 63.858416999999996 0 1 0
1212 0 7 1.575 18.101178 1.3394399999999997 60.678416999999996 0 1 0
1186 0 8 -1.05 19.198013 0.24260500000000107 59.581582000000004 0 1 0
1185 0 8 -1.05 17.004343 2.4362749999999984 59.581582000000004 0 1 0
1198 0 3 -0.804 17.040761 4.519023000000001 57.729417 0 1 0
1190 0 3 -0.804 21.458000000000002 0.2579999999999991 57.729417 0 1 0
32 0 8 -1.05 4.284343 10.916274999999999 63.82158199999999 0 0 0
29 0 8 -1.05 2.1643419999999987 8.796274999999998 63.89525199999999 0 0 0
46 0 8 -1.05 4.284343 12.962605 61.775251999999995 0 0 0
44 0 8 -1.05 2.2380129999999987 12.962605 63.82158199999999 0 0 0
25 0 8 -1.05 0.04434299999999958 8.722605 61.775251999999995 0 0 0
31 0 8 -1.05 2.2380129999999987 10.916274999999999 61.775251999999995 0 0 0
27 0 8 -1.05 0.11801299999999859 10.842603999999998 63.89525199999999 0 0 0
26 0 7 1.575 0.08117799999999864 8.759439999999998 63.858416999999996 0 0 0
30 0 7 1.575 2.2011779999999987 10.879439999999999 63.858416999999996 0 0 0
28 0 7 1.575 1.1411779999999991 9.81944 60.678416999999996 0 0 0
2 0 8 -1.05 2.2380129999999987 8.722605 59.581582000000004 0 0 0
1 0 8 -1.05 0.04434299999999958 10.916274999999999 59.581582000000004 0 0 0
14 0 3 -0.804 0.08076099999999897 12.999023000000001 57.729417 0 0 0
6 0 3 -0.804 4.498 8.738 57.729417 0 0 0
485 0 8 -1.05 0.11801299999999859 13.036275 61.701581999999995 0 0 0
460 0 9 -0.975 0.11801299999999859 15.082605000000001 59.655252 0 0 0
486 0 8 -1.05 2.1643419999999987 15.082605000000001 61.701581999999995 0 0 0
483 0 8 -1.05 0.04434299999999958 15.156275 63.82158199999999 0 0 0
462 0 9 -0.975 2.1643419999999987 13.036275 59.655252 0 0 0
463 0 7 1.575 2.2011779999999987 15.11944 59.618416999999994 0 0 0
487 0 7 1.575 2.2011779999999987 12.99944 61.73841699999999 0 0 0
484 0 6 1.05 0.08117799999999864 15.11944 61.73841699999999 0 0 0
459 0 6 1.05 0.08117799999999864 12.99944 59.618416999999994 0 0 0
489 0 7 1.575 3.2611779999999992 16.17944 62.798417 0 0 0
467 0 8 -1.05 4.284343 15.156275 59.581582000000004 0 0 0
464 0 3 -0.804 2.378 15.098 57.729417 0 0 0
461 0 10 0.425 2.0999999999999996 13.780000000000001 59.136417 0 0 0
457 0 10 0.425 0.040000000000000036 15.96 59.136417 0 0 0
156 0 9 -0.975 6.404343000000001 8.796274999999998 59.655252 0 0 0
183 0 8 -1.05 6.404343000000001 10.842603999999998 61.701581999999995 0 0 0
185 0 8 -1.05 6.478013000000001 8.722605 63.82158199999999 0 0 0
153 0 9 -0.975 4.358013 10.842603999999998 59.655252 0 0 0
182 0 8 -1.05 4.358013 8.796274999999998 61.701581999999995 0 0 0
158 0 6 1.05 6.441178000000001 10.879439999999999 59.618416999999994 0 0 0
152 0 6 1.05 4.321178 8.759439999999998 59.618416999999994 0 0 0
181 0 6 1.05 4.321178 10.879439999999999 61.73841699999999 0 0 0
184 0 6 1.05 6.441178000000001 8.759439999999998 61.73841699999999 0 0 0
186 0 7 1.575 7.501178 11.93944 62.798417 0 0 0
172 0 8 -1.05 6.478013000000001 12.962605 59.581582000000004 0 0 0
157 0 3 -0.804 6.440761 10.879023 57.729417 0 0 0
155 0 10 0.425 6.162761 9.561023 59.136417 0 0 0
151 0 10 0.425 4.102761 11.741023 59.136417 0 0 0
644 0 8 -1.05 6.478013000000001 15.156275 61.775251999999995 0 0 0
640 0 8 -1.05 4.358013 15.082605000000001 63.89525199999999 0 0 0
642 0 8 -1.05 6.404343000000001 13.036275 63.89525199999999 0 0 0
639 0 7 1.575 4.321178 12.99944 63.858416999999996 0 0 0
643 0 7 1.575 6.441178000000001 15.11944 63.858416999999996 0 0 0
641 0 7 1.575 5.381178 14.05944 60.678416999999996 0 0 0
180 0 8 -1.05 12.764343 10.916274999999999 63.82158199999999 0 0 0
177 0 8 -1.05 10.644341999999998 8.796274999999998 63.89525199999999 0 0 0
194 0 8 -1.05 12.764343 12.962605 61.775251999999995 0 0 0
192 0 8 -1.05 10.718013 12.962605 63.82158199999999 0 0 0
173 0 8 -1.05 8.524343 8.722605 61.775251999999995 0 0 0
179 0 8 -1.05 10.718013 10.916274999999999 61.775251999999995 0 0 0
175 0 8 -1.05 8.598012999999998 10.842603999999998 63.89525199999999 0 0 0
174 0 7 1.575 8.561177999999998 8.759439999999998 63.858416999999996 0 0 0
178 0 7 1.575 10.681178 10.879439999999999 63.858416999999996 0 0 0
176 0 7 1.575 9.621178 9.81944 60.678416999999996 0 0 0
150 0 8 -1.05 10.718013 8.722605 59.581582000000004 0 0 0
149 0 8 -1.05 8.524343 10.916274999999999 59.581582000000004 0 0 0
162 0 3 -0.804 8.560761 12.999023000000001 57.729417 0 0 0
154 0 3 -0.804 12.978000000000002 8.738 57.729417 0 0 0
633 0 8 -1.05 8.598012999999998 13.036275 61.701581999999995 0 0 0
608 0 9 -0.975 8.598012999999998 15.082605000000001 59.655252 0 0 0
634 0 8 -1.05 10.644341999999998 15.082605000000001 61.701581999999995 0 0 0
631 0 8 -1.05 8.524343 15.156275 63.82158199999999 0 0 0
610 0 9 -0.975 10.644341999999998 13.036275 59.655252 0 0 0
611 0 7 1.575 10.681178 15.11944 59.618416999999994 0 0 0
635 0 7 1.575 10.681178 12.99944 61.73841699999999 0 0 0
632 0 6 1.05 8.561177999999998 15.11944 61.73841699999999 0 0 0
607 0 6 1.05 8.561177999999998 12.99944 59.618416999999994 0 0 0
637 0 7 1.575 11.741178 16.17944 62.798417 0 0 0
615 0 8 -1.05 12.764343 15.156275 59.581582000000004 0 0 0
612 0 3 -0.804 10.858 15.098 57.729417 0 0 0
609 0 10 0.425 10.58 13.780000000000001 59.136417 0 0 0
605 0 10 0.425 8.52 15.96 59.136417 0 0 0
304 0 9 -0.975 14.884343000000001 8.796274999999998 59.655252 0 0 0
331 0 8 -1.05 14.884343000000001 10.842603999999998 61.701581999999995 0 0 0
333 0 8 -1.05 14.958013000000001 8.722605 63.82158199999999 0 0 0
301 0 9 -0.975 12.838013 10.842603999999998 59.655252 0 0 0
330 0 8 -1.05 12.838013 8.796274999999998 61.701581999999995 0 0 0
306 0 6 1.05 14.921178000000001 10.879439999999999 59.618416999999994 0 0 0
300 0 6 1.05 12.801178 8.759439999999998 59.618416999999994 0 0 0
329 0 6 1.05 12.801178 10.879439999999999 61.73841699999999 0 0 0
332 0 6 1.05 14.921178000000001 8.759439999999998 61.73841699999999 0 0 0
334 0 7 1.575 15.981178 11.93944 62.798417 0 0 0
320 0 8 -1.05 14.958013000000001 12.962605 59.581582000000004 0 0 0
305 0 3 -0.804 14.920761 10.879023 57.729417 0 0 0
303 0 10 0.425 14.642761 9.561023 59.136417 0 0 0
299 0 10 0.425 12.582761000000001 11.741023 59.136417 0 0 0
792 0 8 -1.05 14.958013000000001 15.156275 61.775251999999995 0 0 0
788 0 8 -1.05 12.838013 15.082605000000001 63.89525199999999 0 0 0
790 0 8 -1.05 14.884343000000001 13.036275 63.89525199999999 0 0 0
787 0 7 1.575 12.801178 12.99944 63.858416999999996 0 0 0
791 0 7 1.575 14.921178000000001 15.11944 63.858416999999996 0 0 0
789 0 7 1.575 13.861178 14.05944 60.678416999999996 0 0 0
8 0 9 -0.975 23.364343 8.796274999999998 59.655252 -1 0 0
35 0 8 -1.05 23.364343 10.842603999999998 61.701581999999995 -1 0 0
37 0 8 -1.05 23.438013 8.722605 63.82158199999999 -1 0 0
5 0 9 -0.975 21.318013 10.842603999999998 59.655252 -1 0 0
34 0 8 -1.05 21.318013 8.796274999999998 61.701581999999995 -1 0 0
10 0 6 1.05 23.401178 10.879439999999999 59.618416999999994 -1 0 0
4 0 6 1.05 21.281178 8.759439999999998 59.618416999999994 -1 0 0
33 0 6 1.05 21.281178 10.879439999999999 61.73841699999999 -1 0 0
36 0 6 1.05 23.401178 8.759439999999998 61.73841699999999 -1 0 0
38 0 7 1.575 24.461178 11.93944 62.798417 -1 0 0
24 0 8 -1.05 23.438013 12.962605 59.581582000000004 -1 0 0
9 0 3 -0.804 23.400761000000003 10.879023 57.729417 -1 0 0
7 0 10 0.425 23.122761 9.561023 59.136417 -1 0 0
3 0 10 0.425 21.062761000000002 11.741023 59.136417 -1 0 0
496 0 8 -1.05 23.438013 15.156275 61.775251999999995 -1 0 0
492 0 8 -1.05 21.318013 15.082605000000001 63.89525199999999 -1 0 0
494 0 8 -1.05 23.364343 13.036275 63.89525199999999 -1 0 0
491 0 7 1.575 21.281178 12.99944 63.858416999999996 -1 0 0
495 0 7 1.575 23.401178 15.11944 63.858416999999996 -1 0 0
493 0 7 1.575 22.341178 14.05944 60.678416999999996 -1 0 0
328 0 8 -1.05 21.244343 10.916274999999999 63.82158199999999 0 0 0
325 0 8 -1.05 19.124342 8.796274999999998 63.89525199999999 0 0 0
342 0 8 -1.05 21.244343 12.962605 61.775251999999995 0 0 0
340 0 8 -1.05 19.198013 12.962605 63.82158199999999 0 0 0
321 0 8 -1.05 17.004343 8.722605 61.775251999999995 0 0 0
327 0 8 -1.05 19.198013 10.916274999999999 61.775251999999995 0 0 0
323 0 8 -1.05 17.078013 10.842603999999998 63.89525199999999 0 0 0
322 0 7 1.575 17.041178 8.759439999999998 63.858416999999996 0 0 0
326 0 7 1.575 19.161178 10.879439999999999 63.858416999999996 0 0 0
324 0 7 1.575 18.101178 9.81944 60.678416999999996 0 0 0
298 0 8 -1.05 19.198013 8.722605 59.581582000000004 0 0 0
297 0 8 -1.05 17.004343 10.916274999999999 59.581582000000004 0 0 0
310 0 3 -0.804 17.040761 12.999023000000001 57.729417 0 0 0
302 0 3 -0.804 21.458000000000002 8.738 57.729417 0 0 0
781 0 8 -1.05 17.078013 13.036275 61.701581999999995 0 0 0
756 0 9 -0.975 17.078013 15.082605000000001 59.655252 0 0 0
782 0 8 -1.05 19.124342 15.082605000000001 61.701581999999995 0 0 0
779 0 8 -1.05 17.004343 15.156275 63.82158199999999 0 0 0
758 0 9 -0.975 19.124342 13.036275 59.655252 0 0 0
759 0 7 1.575 19.161178 15.11944 59.618416999999994 0 0 0
783 0 7 1.575 19.161178 12.99944 61.73841699999999 0 0 0
780 0 6 1.05 17.041178 15.11944 61.73841699999999 0 0 0
755 0 6 1.05 17.041178 12.99944 59.618416999999994 0 0 0
785 0 7 1.575 20.221178000000002 16.17944 62.798417 0 0 0
763 0 8 -1.05 21.244343 15.156275 59.581582000000004 0 0 0
760 0 3 -0.804 19.338 15.098 57.729417 0 0 0
757 0 10 0.425 19.060000000000002 13.780000000000001 59.136417 0 0 0
753 0 10 0.425 17 15.96 59.136417 0 0 0
476 0 8 -1.05 4.284343 19.396275 63.82158199999999 0 0 0
473 0 8 -1.05 2.1643419999999987 17.276275 63.89525199999999 0 0 0
490 0 8 -1.05 4.284343 21.442605 61.775251999999995 0 0 0
488 0 8 -1.05 2.2380129999999987 21.442605 63.82158199999999 0 0 0
469 0 8 -1.05 0.04434299999999958 17.202605 61.775251999999995 0 0 0
475 0 8 -1.05 2.2380129999999987 19.396275 61.775251999999995 0 0 0
471 0 8 -1.05 0.11801299999999859 19.322604 63.89525199999999 0 0 0
470 0 7 1.575 0.08117799999999864 17.23944 63.858416999999996 0 0 0
474 0 7 1.575 2.2011779999999987 19.35944 63.858416999999996 0 0 0
472 0 7 1.575 1.1411779999999991 18.29944 60.678416999999996 0 0 0
446 0 8 -1.05 2.2380129999999987 17.202605 59.581582000000004 0 0 0
445 0 8 -1.05 0.04434299999999958 19.396275 59.581582000000004 0 0 0
458 0 3 -0.804 0.08076099999999897 21.479023 57.729417 0 0 0
450 0 3 -0.804 4.498 17.218 57.729417 0 0 0
929 0 8 -1.05 0.11801299999999859 21.516275 61.701581999999995 0 0 0
904 0 9 -0.975 0.11801299999999859 23.562605 59.655252 0 0 0
930 0 8 -1.05 2.1643419999999987 23.562605 61.701581999999995 0 0 0
927 0 8 -1.05 0.04434299999999958 23.636275 63.82158199999999 0 0 0
906 0 9 -0.975 2.1643419999999987 21.516275 59.655252 0 0 0
907 0 7 1.575 2.2011779999999987 23.59944 59.618416999999994 0 0 0
931 0 7 1.575 2.2011779999999987 21.47944 61.73841699999999 0 0 0
928 0 6 1.05 0.08117799999999864 23.59944 61.73841699999999 0 0 0
903 0 6 1.05 0.08117799999999864 21.47944 59.618416999999994 0 0 0
933 0 7 1.575 3.2611779999999992 24.65944 62.798417 0 0 0
911 0 8 -1.05 4.284343 23.636275 59.581582000000004 0 0 0
908 0 3 -0.804 2.378 23.578000000000003 57.729417 0 0 0
905 0 10 0.425 2.0999999999999996 22.26 59.136417 0 0 0
901 0 10 0.425 0.040000000000000036 24.44 59.136417 0 0 0
600 0 9 -0.975 6.404343000000001 17.276275 59.655252 0 0 0
627 0 8 -1.05 6.404343000000001 19.322604 61.701581999999995 0 0 0
629 0 8 -1.05 6.478013000000001 17.202605 63.82158199999999 0 0 0
597 0 9 -0.975 4.358013 19.322604 59.655252 0 0 0
626 0 8 -1.05 4.358013 17.276275 61.701581999999995 0 0 0
602 0 6 1.05 6.441178000000001 19.35944 59.618416999999994 0 0 0
596 0 6 1.05 4.321178 17.23944 59.618416999999994 0 0 0
625 0 6 1.05 4.321178 19.35944 61.73841699999999 0 0 0
628 0 6 1.05 6.441178000000001 17.23944 61.73841699999999 0 0 0
630 0 7 1.575 7.501178 20.41944 62.798417 0 0 0
616 0 8 -1.05 6.478013000000001 21.442605 59.581582000000004 0 0 0
601 0 3 -0.804 6.440761 19.359023 57.729417 0 0 0
599 0 10 0.425 6.162761 18.041023000000003 59.136417 0 0 0
595 0 10 0.425 4.102761 20.221023000000002 59.136417 0 0 0
1088 0 8 -1.05 6.478013000000001 23.636275 61.775251999999995 0 0 0
1084 0 8 -1.05 4.358013 23.562605 63.89525199999999 0 0 0
1086 0 8 -1.05 6.404343000000001 21.516275 63.89525199999999 0 0 0
1083 0 7 1.575 4.321178 21.47944 63.858416999999996 0 0 0
1087 0 7 1.575 6.441178000000001 23.59944 63.858416999999996 0 0 0
1085 0 7 1.575 5.381178 22.53944 60.678416999999996 0 0 0
624 0 8 -1.05 12.764343 19.396275 63.82158199999999 0 0 0
621 0 8 -1.05 10.644341999999998 17.276275 63.89525199999999 0 0 0
638 0 8 -1.05 12.764343 21.442605 61.775251999999995 0 0 0
636 0 8 -1.05 10.718013 21.442605 63.82158199999999 0 0 0
617 0 8 -1.05 8.524343 17.202605 61.775251999999995 0 0 0
623 0 8 -1.05 10.718013 19.396275 61.775251999999995 0 0 0
619 0 8 -1.05 8.598012999999998 19.322604 63.89525199999999 0 0 0
618 0 7 1.575 8.561177999999998 17.23944 63.858416999999996 0 0 0
622 0 7 1.575 10.681178 19.35944 63.858416999999996 0 0 0
620 0 7 1.575 9.621178 18.29944 60.678416999999996 0 0 0
594 0 8 -1.05 10.718013 17.202605 59.581582000000004 0 0 0
593 0 8 -1.05 8.524343 19.396275 59.581582000000004 0 0 0
606 0 3 -0.804 8.560761 21.479023 57.729417 0 0 0
598 0 3 -0.804 12.978000000000002 17.218 57.729417 0 0 0
1077 0 8 -1.05 8.598012999999998 21.516275 61.701581999999995 0 0 0
1052 0 9 -0.975 8.598012999999998 23.562605 59.655252 0 0 0
1078 0 8 -1.05 10.644341999999998 23.562605 61.701581999999995 0 0 0
1075 0 8 -1.05 8.524343 23.636275 63.82158199999999 0 0 0
1054 0 9 -0.975 10.644341999999998 21.516275 59.655252 0 0 0
1055 0 7 1.575 10.681178 23.59944 59.618416999999994 0 0 0
1079 0 7 1.575 10.681178 21.47944 61.73841699999999 0 0 0
1076 0 6 1.05 8.561177999999998 23.59944 61.73841699999999 0 0 0
1051 0 6 1.05 8.561177999999998 21.47944 59.618416999999994 0 0 0
1081 0 7 1.575 11.741178 24.65944 62.798417 0 0 0
1059 0 8 -1.05 12.764343 23.636275 59.581582000000004 0 0 0
1056 0 3 -0.804 10.858 23.578000000000003 57.729417 0 0 0
1053 0 10 0.425 10.58 22.26 59.136417 0 0 0
1049 0 10 0.425 8.52 24.44 59.136417 0 0 0
748 0 9 -0.975 14.884343000000001 17.276275 59.655252 0 0 0
775 0 8 -1.05 14.884343000000001 19.322604 61.701581999999995 0 0 0
777 0 8 -1.05 14.958013000000001 17.202605 63.82158199999999 0 0 0
745 0 9 -0.975 12.838013 19.322604 59.655252 0 0 0
774 0 8 -1.05 12.838013 17.276275 61.701581999999995 0 0 0
750 0 6 1.05 14.921178000000001 19.35944 59.618416999999994 0 0 0
744 0 6 1.05 12.801178 17.23944 59.618416999999994 0 0 0
773 0 6 1.05 12.801178 19.35944 61.73841699999999 0 0 0
776 0 6 1.05 14.921178000000001 17.23944 61.73841699999999 0 0 0
778 0 7 1.575 15.981178 20.41944 62.798417 0 0 0
764 0 8 -1.05 14.958013000000001 21.442605 59.581582000000004 0 0 0
749 0 3 -0.804 14.920761 19.359023 57.729417 0 0 0
747 0 10 0.425 14.642761 18.041023000000003 59.136417 0 0 0
743 0 10 0.425 12.582761000000001 20.221023000000002 59.136417 0 0 0
1236 0 8 -1.05 14.958013000000001 23.636275 61.775251999999995 0 0 0
1232 0 8 -1.05 12.838013 23.562605 63.89525199999999 0 0 0
1234 0 8 -1.05 14.884343000000001 21.516275 63.89525199999999 0 0 0
1231 0 7 1.575 12.801178 21.47944 63.858416999999996 0 0 0
1235 0 7 1.575 14.921178000000001 23.59944 63.858416999999996 0 0 0
1233 0 7 1.575 13.861178 22.53944 60.678416999999996 0 0 0
452 0 9 -0.975 23.364343 17.276275 59.655252 -1 0 0
479 0 8 -1.05 23.364343 19.322604 61.701581999999995 -1 0 0
481 0 8 -1.05 23.438013 17.202605 63.82158199999999 -1 0 0
449 0 9 -0.975 21.318013 19.322604 59.655252 -1 0 0
478 0 8 -1.05 21.318013 17.276275 61.701581999999995 -1 0 0
454 0 6 1.05 23.401178 19.35944 59.618416999999994 -1 0 0
448 0 6 1.05 21.281178 17.23944 59.618416999999994 -1 0 0
477 0 6 1.05 21.281178 19.35944 61.73841699999999 -1 0 0
480 0 6 1.05 23.401178 17.23944 61.73841699999999 -1 0 0
482 0 7 1.575 24.461178 20.41944 62.798417 -1 0 0
468 0 8 -1.05 23.438013 21.442605 59.581582000000004 -1 0 0
453 0 3 -0.804 23.400761000000003 19.359023 57.729417 -1 0 0
451 0 10 0.425 23.122761 18.041023000000003 59.136417 -1 0 0
447 0 10 0.425 21.062761000000002 20.221023000000002 59.136417 -1 0 0
940 0 8 -1.05 23.438013 23.636275 61.775251999999995 -1 0 0
936 0 8 -1.05 21.318013 23.562605 63.89525199999999 -1 0 0
938 0 8 -1.05 23.364343 21.516275 63.89525199999999 -1 0 0
935 0 7 1.575 21.281178 21.47944 63.858416999999996 -1 0 0
939 0 7 1.575 23.401178 23.59944 63.858416999999996 -1 0 0
937 0 7 1.575 22.341178 22.53944 60.678416999999996 -1 0 0
772 0 8 -1.05 21.244343 19.396275 63.82158199999999 0 0 0
769 0 8 -1.05 19.124342 17.276275 63.89525199999999 0 0 0
786 0 8 -1.05 21.244343 21.442605 61.775251999999995 0 0 0
784 0 8 -1.05 19.198013 21.442605 63.82158199999999 0 0 0
765 0 8 -1.05 17.004343 17.202605 61.775251999999995 0 0 0
771 0 8 -1.05 19.198013 19.396275 61.775251999999995 0 0 0
767 0 8 -1.05 17.078013 19.322604 63.89525199999999 0 0 0
766 0 7 1.575 17.041178 17.23944 63.858416999999996 0 0 0
770 0 7 1.575 19.161178 19.35944 63.858416999999996 0 0 0
768 0 7 1.575 18.101178 18.29944 60.678416999999996 0 0 0
742 0 8 -1.05 19.198013 17.202605 59.581582000000004 0 0 0
741 0 8 -1.05 17.004343 19.396275 59.581582000000004 0 0 0
754 0 3 -0.804 17.040761 21.479023 57.729417 0 0 0
746 0 3 -0.804 21.458000000000002 17.218 57.729417 0 0 0
1225 0 8 -1.05 17.078013 21.516275 61.701581999999995 0 0 0
1200 0 9 -0.975 17.078013 23.562605 59.655252 0 0 0
1226 0 8 -1.05 19.124342 23.562605 61.701581999999995 0 0 0
1223 0 8 -1.05 17.004343 23.636275 63.82158199999999 0 0 0
1202 0 9 -0.975 19.124342 21.516275 59.655252 0 0 0
1203 0 7 1.575 19.161178 23.59944 59.618416999999994 0 0 0
1227 0 7 1.575 19.161178 21.47944 61.73841699999999 0 0 0
1224 0 6 1.05 17.041178 23.59944 61.73841699999999 0 0 0
1199 0 6 1.05 17.041178 21.47944 59.618416999999994 0 0 0
1229 0 7 1.575 20.221178000000002 24.65944 62.798417 0 0 0
1207 0 8 -1.05 21.244343 23.636275 59.581582000000004 0 0 0