ITEM: TIMESTEP
0
ITEM: NUMBER OF ATOMS
100
ITEM: BOX BOUNDS pp pp ff
0.0000000000000000e+00 8.4800000000000004e+00
0.0000000000000000e+00 8.4800000000000004e+00
-1.0000000000000000e+02 1.0000000000000000e+02
ITEM: ATOMS id type c_coord
1 6 1
2 7 0
3 7 2
4 7 1
41 6 0
42 7 0
43 6 0
44 6 0
45 7 0
46 7 0
47 7 0
48 7 0
49 7 0
50 7 0
51 7 0
52 7 0
53 6 0
54 7 0
55 7 0
56 7 0
57 7 4
58 7 4
59 6 4
60 7 4
61 7 4
62 7 4
63 6 4
64 7 4
99 7 0
100 7 0
102 6 0
103 7 0
104 7 0
105 6 0
106 7 0
107 7 0
108 7 0
109 7 0
111 6 0
112 6 0
113 7 4
114 7 4
115 7 4
116 7 4
117 6 4
118 7 4
119 7 5
120 7 4
121 7 1
122 6 0
123 7 0
124 6 0
125 7 0
126 7 0
127 7 0
128 7 1
129 7 0
130 7 0
131 6 0
132 6 0
133 7 0
134 7 0
135 7 2
136 7 0
169 7 4
170 7 4
171 7 4
172 7 4
173 7 4
174 7 4
175 7 4
176 7 4
177 7 0
178 6 0
179 7 0
180 7 0
181 6 0
182 7 0
183 7 0
184 6 0
185 7 0
186 7 0
187 7 0
188 6 0
189 7 0
190 7 0
191 7 0
192 6 0
225 7 4
226 6 4
227 6 4
228 7 4
229 6 4
230 6 4
231 7 4
232 7 4
233 6 0
234 6 0
235 6 0
236 7 0
