LAMMPS (29 Sep 2021 - Update 2)
variable  rand equal round(random(0,1e7,452345))
variable layer index 21

variable temp index 500000 450000 405000 364500 328050 295245 265720 239148 215233 193709 174338 156904 141213 127091 114381 102942 92647 83382 75043 67538 60784 54705 49234 44310 39879 35891 32301 29070 26163 23546 21191 19071 17163 15446 13901 12510 11259 10133 9119 8207 7386 6647 5982 5383 4844 4359 3923 3530 3177 2859 2573 2315 2083 1874 1686 1517 1365 1228 1105 994 894 804 723 650 585 526 473 425 382 343 308 277 249 224 201 180 162 145 130 117 105 94 84 75 67 60 54 48 43 38 34 30 27 24 21 18 16 14 12 10 9 8 7 6 5 4 3 2 1

variable type string tet_half

include settings.lmp
units              real
atom_style         full
timestep	   0.5
boundary	   p p f

pair_style         lj/cut/coul/long 12.0
bond_style         harmonic
angle_style        harmonic
dihedral_style     fourier
improper_style     cvff
kspace_style       pppm 1.0e-6
kspace_modify      slab 3.0

pair_modify        mix arithmetic
special_bonds      amber
neighbor           2.0 bin
neigh_modify       every 1 delay 0 check yes

read_data 001-dbt_3x3_${layer}L_fa_${type}_on_bulk_init.data
read_data 001-dbt_3x3_21L_fa_${type}_on_bulk_init.data
read_data 001-dbt_3x3_21L_fa_tet_half_on_bulk_init.data
Reading data file ...
  orthogonal box = (0.0000000 0.0000000 -41.458422) to (25.440000 25.440000 32.908000)
  2 by 2 by 5 MPI processor grid
  reading atoms ...
  2925 atoms
  reading velocities ...
  2925 velocities
  scanning bonds ...
  3 = max bonds/atom
  scanning angles ...
  3 = max angles/atom
  scanning impropers ...
  1 = max impropers/atom
  reading bonds ...
  36 bonds
  reading angles ...
  54 angles
  reading impropers ...
  9 impropers
Finding 1-2 1-3 1-4 neighbors ...
  special bond factors lj:    0        0        0.5     
  special bond factors coul:  0        0        0.8333333333333334
     3 = max # of 1-2 neighbors
     2 = max # of 1-3 neighbors
     2 = max # of 1-4 neighbors
     3 = max # of special neighbors
  special bonds CPU = 0.001 seconds
  read_data CPU = 0.026 seconds

include ff_formic_acid_fe304.param
#####################-----formic_acid-----######################################

mass  1   12.011   # Sp2 C carbonyl group
mass  2    1.008   # H bonded to non-sp3 carbon with 2 electrwd. group
mass  3   15.9994  # Oxygen with one connected atom
mass  4   15.9994  # Oxygen in hydroxyl group
mass  5    1.008   # Hydroxyl group

pair_coeff  1  1   0.0988  3.31521230994  # c
pair_coeff  2  2   0.0161  2.44729877873  # h5
pair_coeff  3  3   0.1463  3.04812087425  # o
pair_coeff  4  4   0.0930  3.24287133403  # oh
pair_coeff  5  5   0.0047  0.537924646013 # ho

bond_coeff  1  361.80  1.105  # c-h5
bond_coeff  2  652.57  1.218  # c=o
bond_coeff  3  383.13  1.351  # c-oh
bond_coeff  4  563.51  0.973  # o-h

angle_coeff  1   51.617  106.550  # c-oh-ho
angle_coeff  2   65.930  123.650  # h5-c=o
angle_coeff  3   65.262  109.490  # h5-c-oh
angle_coeff  4  115.745  122.100  # o=c-oh

dihedral_coeff  1  1  2.3  2  180.0               # h5-c-oh-ho
dihedral_coeff  2  2  2.3  2  180.0  1.9  1  0.0  # o=c-oh-ho

                              #  h5
                              #  |
improper_coeff  1  10.5 -1 2  #  c
                              # / \
                              # o  oh

#####################-----formate-----###########################################

angle_coeff  5   118.817 130.250  # o-c-o

                              #  h5
                              #  |
improper_coeff  2  10.5 -1 2  #  c
                              # / \
                              # o  o

#####################-----magnetite-----#########################################

mass  6   55.845   # Iron(II)
mass  7   55.845   # Iron(III)
mass  8   15.9994  # Bridging oxygen
mass  9   15.9994  # Hydroxyl oxygen
mass  10   1.008   # Hydroxyl hydrogen

pair_coeff  6  6   9.0298e-07  4.90620  # fe2
pair_coeff  7  7   9.0298e-07  4.90620  # fe3
pair_coeff  8  8   0.1554      3.16554  # ob
pair_coeff  9  9   0.1554      3.16554  # oh
pair_coeff  10 10  0.0         0.0      # ho

bond_coeff  5  554.1349  1.0   # oh-ho
bond_coeff  6    0.0     2.08  # fe-oh (dummy bond)

angle_coeff  6   30.0  109.470  # fe-oh-ho

##################################################################################

dump dmp all custom 10000 swap_${layer}L_${type}.lammpstrj id mol type q x y z
dump dmp all custom 10000 swap_21L_${type}.lammpstrj id mol type q x y z
dump dmp all custom 10000 swap_21L_tet_half.lammpstrj id mol type q x y z
dump_modify dmp sort id

# Formate coated fe ions.
group fe molecule 99
576 atoms in group fe
variable nfe equal count(fe)
variable nsteps equal round((${nfe}*${nfe})/4)
variable nsteps equal round((576*${nfe})/4)
variable nsteps equal round((576*576)/4)

compute coord fe coord/atom cutoff 2.0
dump coord fe custom 1 fe_${layer}L.coord id type c_coord
dump coord fe custom 1 fe_21L.coord id type c_coord
dump_modify coord sort id
run 0
WARNING: No fixes defined, atoms won't move (../verlet.cpp:55)
PPPM initialization ...
  using 12-bit tables for long-range coulomb (../kspace.cpp:340)
  G vector (1/distance) = 0.29588697
  grid = 45 45 200
  stencil order = 5
  estimated absolute RMS force accuracy = 0.00034195275
  estimated relative force accuracy = 1.0297805e-06
  using double precision KISS FFT
  3d grid and FFT values/proc = 144150 77234
Neighbor list info ...
  update every 1 steps, delay 0 steps, check yes
  max neighbors/atom: 2000, page size: 100000
  master list distance cutoff = 14
  ghost atom cutoff = 14
  binsize = 7, bins = 4 4 11
  2 neighbor lists, perpetual/occasional/extra = 1 1 0
  (1) pair lj/cut/coul/long, perpetual
      attributes: half, newton on
      pair build: half/bin/newton
      stencil: half/bin/3d
      bin: standard
  (2) compute coord/atom, occasional
      attributes: full, newton on
      pair build: full/bin
      stencil: full/bin/3d
      bin: standard
Per MPI rank memory allocation (min/avg/max) = 14.15 | 16.91 | 24.54 Mbytes
Step Temp E_pair E_mol TotEng Press 
       0            0   -518349.85    3317.5994   -515032.26   -5925.8943 
Loop time of 3.55967e-05 on 20 procs for 0 steps with 2925 atoms

65.0% CPU use with 20 MPI tasks x no OpenMP threads

MPI task timing breakdown:
Section |  min time  |  avg time  |  max time  |%varavg| %total
---------------------------------------------------------------
Pair    | 0          | 0          | 0          |   0.0 |  0.00
Bond    | 0          | 0          | 0          |   0.0 |  0.00
Kspace  | 0          | 0          | 0          |   0.0 |  0.00
Neigh   | 0          | 0          | 0          |   0.0 |  0.00
Comm    | 0          | 0          | 0          |   0.0 |  0.00
Output  | 0          | 0          | 0          |   0.0 |  0.00
Modify  | 0          | 0          | 0          |   0.0 |  0.00
Other   |            | 3.56e-05   |            |       |100.00

Nlocal:        146.250 ave         225 max           4 min
Histogram: 4 0 4 0 0 0 0 0 0 12
Nghost:        4046.35 ave        6291 max        2315 min
Histogram: 8 0 0 0 0 8 0 0 0 4
Neighs:        70085.2 ave      122110 max          69 min
Histogram: 4 0 4 0 0 0 3 1 0 8
FullNghs:      140170.0 ave      238698 max        1920 min
Histogram: 4 4 0 0 0 0 0 0 4 8

Total # of neighbors = 2803410
Ave neighs/atom = 958.43077
Ave special neighs/atom = 0.043076923
Neighbor list builds = 0
Dangerous builds = 0
variable fet atom c_coord==4
group fet variable fet
180 atoms in group fet
group feo subtract fe fet
396 atoms in group feo
undump coord

# Reset molIDs
set mol 1 mol 0
Setting atom values ...
  216 settings made for mol
set mol 2 mol 0
Setting atom values ...
  1269 settings made for mol
set group fet mol 1
Setting atom values ...
  180 settings made for mol
set group feo mol 2
Setting atom values ...
  396 settings made for mol

variable fet3 atom "gmask(fet) && q == 1.575"
group fet3 dynamic fe var fet3 every 100
dynamic group fet3 defined
variable rfet3 equal count(fet3)/count(fet)

variable feo3 atom "gmask(feo) && q == 1.575"
group feo3 dynamic fe var feo3 every 100
dynamic group feo3 defined
variable rfeo3 equal count(feo3)/count(feo)

variable cnum equal 109

# High Tmc swaps to randomize the oxidation states.
fix swp fe atom/swap 1 1 ${rand} 5000000 ke no types 6 7
fix swp fe atom/swap 1 1 855824 5000000 ke no types 6 7
thermo 1000
thermo_style custom step pe f_swp[1] f_swp[2] v_rfet3 v_rfeo3
run 100000
PPPM initialization ...
  using 12-bit tables for long-range coulomb (../kspace.cpp:340)
  G vector (1/distance) = 0.29588697
  grid = 45 45 200
  stencil order = 5
  estimated absolute RMS force accuracy = 0.00034195275
  estimated relative force accuracy = 1.0297805e-06
  using double precision KISS FFT
  3d grid and FFT values/proc = 144150 77234
Per MPI rank memory allocation (min/avg/max) = 12.88 | 15.64 | 23.27 Mbytes
Step PotEng f_swp[1] f_swp[2] v_rfet3 v_rfeo3 
       0   -515032.26            0            0          0.8         0.75 
    1000   -521912.54         1000          994   0.74444444   0.77525253 
    2000   -521338.97         2000         1990   0.77777778   0.76010101 
    3000   -520936.53         3000         2988   0.77222222   0.76262626 
    4000   -521083.76         4000         3984   0.78888889   0.75505051 
    5000   -521598.75         5000         4976   0.76666667   0.76515152 
    6000   -520149.14         6000         5971   0.76666667   0.76515152 
    7000   -521123.14         7000         6966   0.77222222   0.76262626 
    8000   -519730.76         8000         7960   0.75555556   0.77020202 
    9000   -522278.61         9000         8955   0.72777778   0.78282828 
   10000    -522845.8        10000         9953   0.78888889   0.75505051 
   11000   -521771.12        11000        10950         0.75   0.77272727 
   12000   -522796.37        12000        11943   0.73888889   0.77777778 
   13000   -521900.92        13000        12936   0.78333333   0.75757576 
   14000   -522193.94        14000        13932   0.81111111   0.74494949 
   15000   -521435.53        15000        14925   0.75555556   0.77020202 
   16000   -520906.26        16000        15918   0.77222222   0.76262626 
   17000   -520891.28        17000        16913   0.76666667   0.76515152 
   18000    -521149.4        18000        17907   0.74444444   0.77525253 
   19000    -523185.1        19000        18905   0.71666667   0.78787879 
   20000   -520846.18        20000        19899   0.74444444   0.77525253 
   21000   -520773.44        21000        20897   0.78888889   0.75505051 
   22000   -521015.22        22000        21890   0.75555556   0.77020202 
   23000   -517797.62        23000        22889   0.80555556   0.74747475 
   24000   -521579.06        24000        23882   0.79444444   0.75252525 
   25000   -522688.77        25000        24872   0.77777778   0.76010101 
   26000   -521235.82        26000        25863         0.75   0.77272727 
   27000   -520529.74        27000        26851         0.75   0.77272727 
   28000   -521256.32        28000        27844   0.73888889   0.77777778 
   29000   -518818.87        29000        28837   0.76111111   0.76767677 
   30000   -520880.41        30000        29831   0.78333333   0.75757576 
   31000   -521293.09        31000        30822   0.72777778   0.78282828 
   32000    -519927.7        32000        31819   0.77777778   0.76010101 
   33000   -520165.65        33000        32815   0.75555556   0.77020202 
   34000   -521059.67        34000        33811   0.75555556   0.77020202 
   35000   -520520.67        35000        34802   0.76111111   0.76767677 
   36000   -519400.84        36000        35798   0.78333333   0.75757576 
   37000   -522388.11        37000        36794   0.77777778   0.76010101 
   38000   -519990.29        38000        37788   0.73888889   0.77777778 
   39000   -521022.95        39000        38784   0.75555556   0.77020202 
   40000   -522875.26        40000        39779   0.76111111   0.76767677 
   41000   -521508.07        41000        40773   0.74444444   0.77525253 
   42000   -518970.53        42000        41771   0.77222222   0.76262626 
   43000   -519372.82        43000        42766          0.8         0.75 
   44000   -521233.29        44000        43761   0.78888889   0.75505051 
   45000   -521000.09        45000        44752   0.73888889   0.77777778 
   46000   -520703.36        46000        45745   0.74444444   0.77525253 
   47000   -522111.69        47000        46738   0.77222222   0.76262626 
   48000    -522565.3        48000        47735   0.80555556   0.74747475 
   49000    -522027.6        49000        48733   0.77222222   0.76262626 
   50000   -520544.89        50000        49729   0.80555556   0.74747475 
   51000   -521909.76        51000        50724   0.74444444   0.77525253 
   52000   -520696.74        52000        51721   0.80555556   0.74747475 
   53000   -521797.71        53000        52718   0.82222222   0.73989899 
   54000   -521802.44        54000        53712   0.76666667   0.76515152 
   55000   -520299.49        55000        54707   0.72777778   0.78282828 
   56000   -519534.41        56000        55696          0.8         0.75 
   57000   -519940.04        57000        56693   0.76111111   0.76767677 
   58000    -523230.8        58000        57689   0.75555556   0.77020202 
   59000   -518478.84        59000        58684   0.76666667   0.76515152 
   60000   -520659.17        60000        59672   0.75555556   0.77020202 
   61000   -522507.14        61000        60668   0.81666667   0.74242424 
   62000   -521512.54        62000        61658   0.70555556   0.79292929 
   63000   -522078.32        63000        62651   0.77222222   0.76262626 
   64000   -519551.62        64000        63646   0.77777778   0.76010101 
   65000   -521726.23        65000        64641   0.81111111   0.74494949 
   66000   -520479.86        66000        65635   0.77777778   0.76010101 
   67000      -520475        67000        66630   0.76111111   0.76767677 
   68000   -521151.61        68000        67625   0.74444444   0.77525253 
   69000   -520668.29        69000        68621   0.77222222   0.76262626 
   70000    -521059.1        70000        69617   0.78888889   0.75505051 
   71000   -519337.75        71000        70614   0.73888889   0.77777778 
   72000   -520886.61        72000        71612   0.78333333   0.75757576 
   73000   -520068.22        73000        72609   0.72222222   0.78535354 
   74000   -521000.96        74000        73601   0.81666667   0.74242424 
   75000    -519545.4        75000        74593   0.76111111   0.76767677 
   76000   -519791.37        76000        75587   0.71666667   0.78787879 
   77000   -522841.28        77000        76580   0.79444444   0.75252525 
   78000   -516976.97        78000        77576   0.79444444   0.75252525 
   79000   -521236.14        79000        78568         0.75   0.77272727 
   80000   -521678.24        80000        79566   0.75555556   0.77020202 
   81000    -521773.9        81000        80558   0.82222222   0.73989899 
   82000   -520836.47        82000        81553   0.77777778   0.76010101 
   83000   -520715.34        83000        82547   0.73888889   0.77777778 
   84000    -521787.9        84000        83537   0.80555556   0.74747475 
   85000   -519245.79        85000        84529   0.77222222   0.76262626 
   86000   -519282.92        86000        85524   0.77222222   0.76262626 
   87000   -520945.91        87000        86516   0.77777778   0.76010101 
   88000    -522365.3        88000        87509   0.77222222   0.76262626 
   89000   -520122.56        89000        88502   0.76666667   0.76515152 
   90000   -520824.78        90000        89496   0.71666667   0.78787879 
   91000   -520883.74        91000        90495   0.76111111   0.76767677 
   92000   -520570.04        92000        91489   0.77777778   0.76010101 
   93000   -521080.93        93000        92481   0.76111111   0.76767677 
   94000   -521476.96        94000        93477   0.75555556   0.77020202 
   95000   -521971.13        95000        94466   0.78888889   0.75505051 
   96000   -520692.64        96000        95460   0.78888889   0.75505051 
   97000   -518450.08        97000        96448   0.78333333   0.75757576 
   98000    -522648.1        98000        97446   0.74444444   0.77525253 
   99000   -521142.31        99000        98436   0.76111111   0.76767677 
  100000   -521580.82       100000        99430   0.81111111   0.74494949 
Loop time of 6446.24 on 20 procs for 100000 steps with 2925 atoms

Performance: 0.670 ns/day, 35.812 hours/ns, 15.513 timesteps/s
99.3% CPU use with 20 MPI tasks x no OpenMP threads

MPI task timing breakdown:
Section |  min time  |  avg time  |  max time  |%varavg| %total
---------------------------------------------------------------
Pair    | 0.75138    | 132.78     | 236.14     | 771.6 |  2.06
Bond    | 0.07424    | 0.18568    | 0.42482    |  29.7 |  0.00
Kspace  | 1099.6     | 1203.3     | 1336       | 257.9 | 18.67
Neigh   | 323.65     | 330.14     | 343.29     |  37.6 |  5.12
Comm    | 38.964     | 57.667     | 67.741     | 134.1 |  0.89
Output  | 0.016327   | 0.020701   | 0.030301   |   3.0 |  0.00
Modify  | 4716       | 4719.9     | 4725.5     |   5.5 | 73.22
Other   |            | 2.203      |            |       |  0.03

Nlocal:        146.250 ave         225 max           4 min
Histogram: 4 0 4 0 0 0 0 0 0 12
Nghost:        4046.35 ave        6291 max        2315 min
Histogram: 8 0 0 0 0 8 0 0 0 4
Neighs:        70085.2 ave      122110 max          69 min
Histogram: 4 0 4 0 0 0 3 1 0 8
FullNghs:      140170.0 ave      238698 max        1920 min
Histogram: 4 4 0 0 0 0 0 0 4 8

Total # of neighbors = 2803410
Ave neighs/atom = 958.43077
Ave special neighs/atom = 0.043076923
Neighbor list builds = 200000
Dangerous builds = 0

unfix swp
thermo_style custom step temp pe
write_data 001-dbt_3x3_${layer}L_fa_${type}_rand.data
write_data 001-dbt_3x3_21L_fa_${type}_rand.data
write_data 001-dbt_3x3_21L_fa_tet_half_rand.data
System init for write_data ...
PPPM initialization ...
  using 12-bit tables for long-range coulomb (../kspace.cpp:340)
  G vector (1/distance) = 0.29588697
  grid = 45 45 200
  stencil order = 5
  estimated absolute RMS force accuracy = 0.00034195275
  estimated relative force accuracy = 1.0297805e-06
  using double precision KISS FFT
  3d grid and FFT values/proc = 144150 77234

label minimize_temp

  variable ftemp equal v_temp

  # Minimize O-H bond
  group  immobile_1 type 1 2 3 6 7 8
2907 atoms in group immobile_1
  fix  freeze immobile_1 setforce 0.0 0.0 0.0
  minimize  1.0e-6 1.0e-9 1000 10000
PPPM initialization ...
  using 12-bit tables for long-range coulomb (../kspace.cpp:340)
  G vector (1/distance) = 0.29588697
  grid = 45 45 200
  stencil order = 5
  estimated absolute RMS force accuracy = 0.00034195275
  estimated relative force accuracy = 1.0297805e-06
  using double precision KISS FFT
  3d grid and FFT values/proc = 144150 77234
Per MPI rank memory allocation (min/avg/max) = 14.01 | 16.77 | 24.40 Mbytes
Step Temp PotEng 
  100000            0   -521580.82 
  100015            0   -522389.29 
Loop time of 0.356124 on 20 procs for 15 steps with 2925 atoms

99.4% CPU use with 20 MPI tasks x no OpenMP threads

Minimization stats:
  Stopping criterion = energy tolerance
  Energy initial, next-to-last, final = 
     -521580.821227651  -522389.049879043  -522389.290927133
  Force two-norm initial, final = 1485.2694 18.665283
  Force max component initial, final = 287.48190 6.3380922
  Final line search alpha, max atom move = 0.0071199890 0.045127146
  Iterations, force evaluations = 15 23

MPI task timing breakdown:
Section |  min time  |  avg time  |  max time  |%varavg| %total
---------------------------------------------------------------
Pair    | 0.00022653 | 0.047415   | 0.085639   |  14.6 | 13.31
Bond    | 3.2207e-05 | 8.2586e-05 | 0.00019378 |   0.0 |  0.02
Kspace  | 0.25748    | 0.29601    | 0.34343    |   5.9 | 83.12
Neigh   | 0.0031348  | 0.0031992  | 0.0033325  |   0.1 |  0.90
Comm    | 0.0042976  | 0.00654    | 0.0081302  |   1.7 |  1.84
Output  | 0          | 0          | 0          |   0.0 |  0.00
Modify  | 2.7686e-05 | 5.0566e-05 | 6.8756e-05 |   0.0 |  0.01
Other   |            | 0.002823   |            |       |  0.79

Nlocal:        146.250 ave         225 max           4 min
Histogram: 4 0 4 0 0 0 0 0 0 12
Nghost:        4052.35 ave        6316 max        2320 min
Histogram: 8 0 0 0 0 8 0 0 0 4
Neighs:        70085.4 ave      122110 max          69 min
Histogram: 4 0 4 0 0 0 3 1 0 8
FullNghs:      140170.0 ave      238698 max        1920 min
Histogram: 4 4 0 0 0 0 0 0 4 8

Total # of neighbors = 2803410
Ave neighs/atom = 958.43077
Ave special neighs/atom = 0.043076923
Neighbor list builds = 1
Dangerous builds = 0
  unfix  freeze
  group immobile_1 delete

  # Minimize formate
  group  immobile_2 type 6 7 8 9 10
2889 atoms in group immobile_2
  fix  freeze immobile_2 setforce 0.0 0.0 0.0
  minimize  1.0e-6 1.0e-9 1000 10000
PPPM initialization ...
  using 12-bit tables for long-range coulomb (../kspace.cpp:340)
  G vector (1/distance) = 0.29588697
  grid = 45 45 200
  stencil order = 5
  estimated absolute RMS force accuracy = 0.00034195275
  estimated relative force accuracy = 1.0297805e-06
  using double precision KISS FFT
  3d grid and FFT values/proc = 144150 77234
Per MPI rank memory allocation (min/avg/max) = 14.01 | 16.77 | 24.40 Mbytes
Step Temp PotEng 
  100015            0   -522389.29 
  100038            0   -524567.11 
Loop time of 0.619305 on 20 procs for 23 steps with 2925 atoms

99.2% CPU use with 20 MPI tasks x no OpenMP threads

Minimization stats:
  Stopping criterion = energy tolerance
  Energy initial, next-to-last, final = 
     -522389.290927133  -524566.594279514  -524567.107308088
  Force two-norm initial, final = 2737.4121 20.878583
  Force max component initial, final = 439.63193 6.3067762
  Final line search alpha, max atom move = 0.0019201214 0.012109776
  Iterations, force evaluations = 23 41

MPI task timing breakdown:
Section |  min time  |  avg time  |  max time  |%varavg| %total
---------------------------------------------------------------
Pair    | 0.00055977 | 0.083157   | 0.14809    |  19.2 | 13.43
Bond    | 5.934e-05  | 0.0001485  | 0.00039593 |   0.0 |  0.02
Kspace  | 0.45127    | 0.51687    | 0.59993    |   7.8 | 83.46
Neigh   | 0.0031599  | 0.0032462  | 0.0033986  |   0.1 |  0.52
Comm    | 0.0078012  | 0.011775   | 0.014554   |   2.3 |  1.90
Output  | 0          | 0          | 0          |   0.0 |  0.00
Modify  | 4.8527e-05 | 8.6088e-05 | 0.00010323 |   0.0 |  0.01
Other   |            | 0.004024   |            |       |  0.65

Nlocal:        146.250 ave         225 max           4 min
Histogram: 4 0 4 0 0 0 0 0 0 12
Nghost:        4051.35 ave        6316 max        2315 min
Histogram: 8 0 0 0 0 8 0 0 0 4
Neighs:        70085.4 ave      122110 max          70 min
Histogram: 4 0 4 0 0 0 3 1 0 8
FullNghs:      140170.0 ave      238698 max        1920 min
Histogram: 4 4 0 0 0 0 0 0 4 8

Total # of neighbors = 2803410
Ave neighs/atom = 958.43077
Ave special neighs/atom = 0.043076923
Neighbor list builds = 1
Dangerous builds = 0
  unfix  freeze
  group immobile_2 delete

  # Electrostatic relaxation
  fix  swp fe atom/swap 1 1 ${rand} ${temp} ke no types 6 7
  fix  swp fe atom/swap 1 1 710414 ${temp} ke no types 6 7
  fix  swp fe atom/swap 1 1 710414 500000 ke no types 6 7
  thermo 1000
  thermo_style custom step v_ftemp v_cnum pe f_swp[1] f_swp[2] v_rfet3 v_rfeo3
  run ${nsteps}
  run 82944
PPPM initialization ...
  using 12-bit tables for long-range coulomb (../kspace.cpp:340)
  G vector (1/distance) = 0.29588697
  grid = 45 45 200
  stencil order = 5
  estimated absolute RMS force accuracy = 0.00034195275
  estimated relative force accuracy = 1.0297805e-06
  using double precision KISS FFT
  3d grid and FFT values/proc = 144150 77234
Per MPI rank memory allocation (min/avg/max) = 12.88 | 15.64 | 23.27 Mbytes
Step v_ftemp v_cnum PotEng f_swp[1] f_swp[2] v_rfet3 v_rfeo3 
  100038       500000          109   -524567.11            0            0   0.80555556   0.74747475 
  101000       500000          109   -524150.33          962          925   0.79444444   0.75252525 
  102000       500000          109   -525356.96         1962         1881   0.76111111   0.76767677 
  103000       500000          109   -524931.26         2962         2826   0.77777778   0.76010101 
  104000       500000          109   -524101.07         3962         3777   0.71666667   0.78787879 
  105000       500000          109   -524697.73         4962         4729   0.75555556   0.77020202 
  106000       500000          109   -523866.43         5962         5670   0.76666667   0.76515152 
  107000       500000          109   -524057.88         6962         6612   0.76111111   0.76767677 
  108000       500000          109   -522760.94         7962         7555   0.76666667   0.76515152 
  109000       500000          109   -524956.58         8962         8506   0.78888889   0.75505051 
  110000       500000          109   -524461.28         9962         9460   0.72777778   0.78282828 
  111000       500000          109   -525317.05        10962        10414   0.73333333   0.78030303 
  112000       500000          109    -525293.3        11962        11362   0.75555556   0.77020202 
  113000       500000          109   -524683.07        12962        12310   0.76666667   0.76515152 
  114000       500000          109      -524276        13962        13263   0.78888889   0.75505051 
  115000       500000          109   -525332.18        14962        14202   0.74444444   0.77525253 
  116000       500000          109   -524807.98        15962        15137   0.82777778   0.73737374 
  117000       500000          109   -526167.61        16962        16079   0.74444444   0.77525253 
  118000       500000          109   -524932.73        17962        17033   0.78333333   0.75757576 
  119000       500000          109   -525532.68        18962        17982   0.82777778   0.73737374 
  120000       500000          109   -524499.44        19962        18930   0.76666667   0.76515152 
  121000       500000          109    -525715.9        20962        19874   0.78888889   0.75505051 
  122000       500000          109   -524080.72        21962        20817   0.73888889   0.77777778 
  123000       500000          109   -524781.22        22962        21759   0.78333333   0.75757576 
  124000       500000          109   -525191.78        23962        22706   0.72777778   0.78282828 
  125000       500000          109   -525319.58        24962        23647         0.75   0.77272727 
  126000       500000          109   -524326.29        25962        24594   0.82777778   0.73737374 
  127000       500000          109   -525712.37        26962        25525   0.76111111   0.76767677 
  128000       500000          109   -524583.08        27962        26473          0.8         0.75 
  129000       500000          109   -525074.73        28962        27435   0.74444444   0.77525253 
  130000       500000          109   -523430.64        29962        28388   0.76111111   0.76767677 
  131000       500000          109   -524955.55        30962        29331   0.76666667   0.76515152 
  132000       500000          109   -524956.28        31962        30270   0.73888889   0.77777778 
  133000       500000          109    -524992.1        32962        31201   0.76111111   0.76767677 
  134000       500000          109   -525548.96        33962        32148   0.78333333   0.75757576 
  135000       500000          109   -524423.31        34962        33094   0.77222222   0.76262626 
  136000       500000          109   -523829.64        35962        34039   0.81111111   0.74494949 
  137000       500000          109   -524670.65        36962        34976   0.76111111   0.76767677 
  138000       500000          109   -525137.21        37962        35905   0.73888889   0.77777778 
  139000       500000          109   -524298.82        38962        36860   0.77777778   0.76010101 
  140000       500000          109   -525035.14        39962        37811   0.70555556   0.79292929 
  141000       500000          109   -524460.11        40962        38751   0.77222222   0.76262626 
  142000       500000          109   -523629.03        41962        39695   0.78333333   0.75757576 
  143000       500000          109   -524984.59        42962        40654   0.72777778   0.78282828 
  144000       500000          109   -522416.84        43962        41600   0.80555556   0.74747475 
  145000       500000          109   -525334.12        44962        42545   0.79444444   0.75252525 
  146000       500000          109   -523587.45        45962        43494   0.73888889   0.77777778 
  147000       500000          109   -524902.96        46962        44446   0.79444444   0.75252525 
  148000       500000          109   -525456.55        47962        45403         0.75   0.77272727 
  149000       500000          109   -524929.19        48962        46358   0.74444444   0.77525253 
  150000       500000          109   -524775.55        49962        47297         0.75   0.77272727 
  151000       500000          109   -525459.26        50962        48243   0.74444444   0.77525253 
  152000       500000          109   -523308.45        51962        49181   0.72222222   0.78535354 
  153000       500000          109      -525155        52962        50137   0.76111111   0.76767677 
  154000       500000          109   -524462.74        53962        51103   0.79444444   0.75252525 
  155000       500000          109   -526136.64        54962        52041   0.78888889   0.75505051 
  156000       500000          109   -524971.02        55962        52991   0.77777778   0.76010101 
  157000       500000          109   -524296.95        56962        53938   0.77222222   0.76262626 
  158000       500000          109   -524804.59        57962        54881   0.72777778   0.78282828 
  159000       500000          109   -522551.53        58962        55823   0.77222222   0.76262626 
  160000       500000          109   -525192.21        59962        56766   0.78888889   0.75505051 
  161000       500000          109   -525476.21        60962        57711   0.75555556   0.77020202 
  162000       500000          109   -525353.88        61962        58640   0.76666667   0.76515152 
  163000       500000          109   -524299.48        62962        59587   0.77222222   0.76262626 
  164000       500000          109   -523724.71        63962        60540   0.76111111   0.76767677 
  165000       500000          109   -525282.46        64962        61496   0.76111111   0.76767677 
  166000       500000          109   -525043.05        65962        62449   0.70555556   0.79292929 
  167000       500000          109   -524224.72        66962        63397   0.73333333   0.78030303 
  168000       500000          109   -524190.79        67962        64336   0.77777778   0.76010101 
  169000       500000          109   -523849.05        68962        65288   0.81666667   0.74242424 
  170000       500000          109   -523909.98        69962        66222   0.77777778   0.76010101 
  171000       500000          109   -523936.74        70962        67162   0.78333333   0.75757576 
  172000       500000          109   -525007.39        71962        68114   0.75555556   0.77020202 
  173000       500000          109   -524572.75        72962        69068          0.7   0.79545455 
  174000       500000          109   -524115.59        73962        70028   0.76111111   0.76767677 
  175000       500000          109   -526121.53        74962        70975   0.78888889   0.75505051 
  176000       500000          109   -524155.59        75962        71923   0.76666667   0.76515152 
  177000       500000          109   -526166.44        76962        72880   0.77777778   0.76010101 
  178000       500000          109   -524526.71        77962        73823   0.76111111   0.76767677 
  179000       500000          109   -525359.17        78962        74765   0.77222222   0.76262626 
  180000       500000          109   -525271.46        79962        75722         0.75   0.77272727 
  181000       500000          109   -525262.63        80962        76658         0.75   0.77272727 
  182000       500000          109   -525260.11        81962        77603   0.77777778   0.76010101 
  182982       500000          109   -525231.42        82944        78548   0.72777778   0.78282828 
Loop time of 5368.6 on 20 procs for 82944 steps with 2925 atoms

Performance: 0.667 ns/day, 35.959 hours/ns, 15.450 timesteps/s
99.3% CPU use with 20 MPI tasks x no OpenMP threads

MPI task timing breakdown:
Section |  min time  |  avg time  |  max time  |%varavg| %total
---------------------------------------------------------------
Pair    | 0.81882    | 109.07     | 198.65     | 698.8 |  2.03
Bond    | 0.062178   | 0.15458    | 0.34159    |  26.2 |  0.00
Kspace  | 919.42     | 1009.3     | 1118.1     | 231.3 | 18.80
Neigh   | 262.47     | 267.67     | 278.45     |  34.1 |  4.99
Comm    | 31.727     | 47.038     | 55.298     | 120.9 |  0.88
Output  | 0.013538   | 0.017289   | 0.025027   |   2.7 |  0.00
Modify  | 3930.2     | 3933.5     | 3938       |   5.0 | 73.27
Other   |            | 1.88       |            |       |  0.04

Nlocal:        146.250 ave         225 max           4 min
Histogram: 4 0 4 0 0 0 0 0 0 12
Nghost:        4051.35 ave        6316 max        2315 min
Histogram: 8 0 0 0 0 8 0 0 0 4
Neighs:        70083.8 ave      122110 max          70 min
Histogram: 4 0 4 0 0 0 3 1 0 8
FullNghs:      140170.0 ave      238698 max        1920 min
Histogram: 4 4 0 0 0 0 0 0 4 8

Total # of neighbors = 2803410
Ave neighs/atom = 958.43077
Ave special neighs/atom = 0.043076923
Neighbor list builds = 165888
Dangerous builds = 0

  variable cnum equal (${cnum}-1)
  variable cnum equal (109-1)

  unfix swp
  thermo_style custom step temp pe
  write_data  001-dbt_3x3_${layer}L_fa_${type}_${cnum}_${temp}K.data
  write_data  001-dbt_3x3_21L_fa_${type}_${cnum}_${temp}K.data
  write_data  001-dbt_3x3_21L_fa_tet_half_${cnum}_${temp}K.data
  write_data  001-dbt_3x3_21L_fa_tet_half_108_${temp}K.data
  write_data  001-dbt_3x3_21L_fa_tet_half_108_500000K.data
System init for write_data ...
PPPM initialization ...
  using 12-bit tables for long-range coulomb (../kspace.cpp:340)
  G vector (1/distance) = 0.29588697
  grid = 45 45 200
  stencil order = 5
  estimated absolute RMS force accuracy = 0.00034195275
  estimated relative force accuracy = 1.0297805e-06
  using double precision KISS FFT
  3d grid and FFT values/proc = 144150 77234

next temp
jump SELF minimize_temp

  variable ftemp equal v_temp

  # Minimize O-H bond
  group  immobile_1 type 1 2 3 6 7 8
2907 atoms in group immobile_1
  fix  freeze immobile_1 setforce 0.0 0.0 0.0
  minimize  1.0e-6 1.0e-9 1000 10000
PPPM initialization ...
  using 12-bit tables for long-range coulomb (../kspace.cpp:340)
  G vector (1/distance) = 0.29588697
  grid = 45 45 200
  stencil order = 5
  estimated absolute RMS force accuracy = 0.00034195275
  estimated relative force accuracy = 1.0297805e-06
  using double precision KISS FFT
  3d grid and FFT values/proc = 144150 77234
Per MPI rank memory allocation (min/avg/max) = 14.01 | 16.77 | 24.40 Mbytes
Step Temp PotEng 
  182982            0   -525231.42 
  182987            0   -525252.95 
Loop time of 0.162935 on 20 procs for 5 steps with 2925 atoms

99.4% CPU use with 20 MPI tasks x no OpenMP threads

Minimization stats:
  Stopping criterion = energy tolerance
  Energy initial, next-to-last, final = 
     -525231.421095857  -525252.494525945  -525252.947488694
  Force two-norm initial, final = 145.13801 26.028342
  Force max component initial, final = 54.868698 9.2789009
  Final line search alpha, max atom move = 0.0081891708 0.075986504
  Iterations, force evaluations = 5 10

MPI task timing breakdown:
Section |  min time  |  avg time  |  max time  |%varavg| %total
---------------------------------------------------------------
Pair    | 0.00017693 | 0.021722   | 0.039525   |   9.8 | 13.33
Bond    | 1.5541e-05 | 3.7396e-05 | 9.7026e-05 |   0.0 |  0.02
Kspace  | 0.11878    | 0.13668    | 0.15834    |   4.0 | 83.89
Neigh   | 0          | 0          | 0          |   0.0 |  0.00
Comm    | 0.0018707  | 0.0028867  | 0.0036134  |   1.2 |  1.77
Output  | 0          | 0          | 0          |   0.0 |  0.00
Modify  | 1.4358e-05 | 2.3349e-05 | 2.9609e-05 |   0.0 |  0.01
Other   |            | 0.001581   |            |       |  0.97

Nlocal:        146.250 ave         225 max           4 min
Histogram: 4 0 4 0 0 0 0 0 0 12
Nghost:        4051.35 ave        6316 max        2315 min
Histogram: 8 0 0 0 0 8 0 0 0 4
Neighs:        70083.8 ave      122110 max          70 min
Histogram: 4 0 4 0 0 0 3 1 0 8
FullNghs:      140170.0 ave      238698 max        1920 min
Histogram: 4 4 0 0 0 0 0 0 4 8

Total # of neighbors = 2803410
Ave neighs/atom = 958.43077
Ave special neighs/atom = 0.043076923
Neighbor list builds = 0
Dangerous builds = 0
  unfix  freeze
  group immobile_1 delete

  # Minimize formate
  group  immobile_2 type 6 7 8 9 10
2889 atoms in group immobile_2
  fix  freeze immobile_2 setforce 0.0 0.0 0.0
  minimize  1.0e-6 1.0e-9 1000 10000
PPPM initialization ...
  using 12-bit tables for long-range coulomb (../kspace.cpp:340)
  G vector (1/distance) = 0.29588697
  grid = 45 45 200
  stencil order = 5
  estimated absolute RMS force accuracy = 0.00034195275
  estimated relative force accuracy = 1.0297805e-06
  using double precision KISS FFT
  3d grid and FFT values/proc = 144150 77234
Per MPI rank memory allocation (min/avg/max) = 14.01 | 16.77 | 24.40 Mbytes
Step Temp PotEng 
  182987            0   -525252.95 
  183000            0   -525294.68 
  183015            0      -525315 
Loop time of 0.799142 on 20 procs for 28 steps with 2925 atoms

99.2% CPU use with 20 MPI tasks x no OpenMP threads

Minimization stats:
  Stopping criterion = energy tolerance
  Energy initial, next-to-last, final = 
     -525252.947488694  -525314.677643276  -525315.003060953
  Force two-norm initial, final = 130.76732 24.208447
  Force max component initial, final = 58.584524 8.2091597
  Final line search alpha, max atom move = 0.0021811226 0.017905184
  Iterations, force evaluations = 28 52

MPI task timing breakdown:
Section |  min time  |  avg time  |  max time  |%varavg| %total
---------------------------------------------------------------
Pair    | 0.00078099 | 0.10542    | 0.18999    |  21.7 | 13.19
Bond    | 7.0474e-05 | 0.00017501 | 0.00044825 |   0.0 |  0.02
Kspace  | 0.58525    | 0.67052    | 0.7757     |   8.7 | 83.91
Neigh   | 0.0031365  | 0.0032057  | 0.0033475  |   0.1 |  0.40
Comm    | 0.0096347  | 0.014721   | 0.01828    |   2.6 |  1.84
Output  | 3.4996e-05 | 3.8273e-05 | 6.9545e-05 |   0.0 |  0.00
Modify  | 6.3502e-05 | 0.00011047 | 0.0001432  |   0.0 |  0.01
Other   |            | 0.004949   |            |       |  0.62

Nlocal:        146.250 ave         225 max           4 min
Histogram: 4 0 4 0 0 0 0 0 0 12
Nghost:        4051.35 ave        6316 max        2315 min
Histogram: 8 0 0 0 0 8 0 0 0 4
Neighs:        70082.9 ave      122110 max          70 min
Histogram: 4 0 4 0 0 0 3 1 0 8
FullNghs:      140170.0 ave      238698 max        1920 min
Histogram: 4 4 0 0 0 0 0 0 4 8

Total # of neighbors = 2803410
Ave neighs/atom = 958.43077
Ave special neighs/atom = 0.043076923
Neighbor list builds = 1
Dangerous builds = 0
  unfix  freeze
  group immobile_2 delete

  # Electrostatic relaxation
  fix  swp fe atom/swap 1 1 ${rand} ${temp} ke no types 6 7
  fix  swp fe atom/swap 1 1 755762 ${temp} ke no types 6 7
  fix  swp fe atom/swap 1 1 755762 450000 ke no types 6 7
  thermo 1000
  thermo_style custom step v_ftemp v_cnum pe f_swp[1] f_swp[2] v_rfet3 v_rfeo3
  run ${nsteps}
  run 82944
PPPM initialization ...
  using 12-bit tables for long-range coulomb (../kspace.cpp:340)
  G vector (1/distance) = 0.29588697
  grid = 45 45 200
  stencil order = 5
  estimated absolute RMS force accuracy = 0.00034195275
  estimated relative force accuracy = 1.0297805e-06
  using double precision KISS FFT
  3d grid and FFT values/proc = 144150 77234
Per MPI rank memory allocation (min/avg/max) = 12.88 | 15.64 | 23.27 Mbytes
Step v_ftemp v_cnum PotEng f_swp[1] f_swp[2] v_rfet3 v_rfeo3 
  183015       450000          108      -525315            0            0   0.72222222   0.78535354 
  184000       450000          108   -523477.14          985          936   0.80555556   0.74747475 
  185000       450000          108   -524327.75         1985         1887   0.77222222   0.76262626 
  186000       450000          108    -524128.2         2985         2831   0.71111111   0.79040404 
  187000       450000          108   -524242.69         3985         3787   0.84444444   0.72979798 
  188000       450000          108    -524839.8         4985         4726         0.75   0.77272727 
  189000       450000          108   -524522.05         5985         5660   0.76666667   0.76515152 
  190000       450000          108   -524190.99         6985         6610   0.79444444   0.75252525 
  191000       450000          108   -525790.13         7985         7546   0.77222222   0.76262626 
  192000       450000          108   -524789.04         8985         8474          0.8         0.75 
  193000       450000          108   -524851.97         9985         9428   0.78888889   0.75505051 
  194000       450000          108   -525326.27        10985        10369   0.72222222   0.78535354 
  195000       450000          108   -524780.14        11985        11312   0.74444444   0.77525253 
  196000       450000          108   -525108.14        12985        12254   0.75555556   0.77020202 
  197000       450000          108   -525386.54        13985        13200   0.77222222   0.76262626 
  198000       450000          108   -524129.22        14985        14136         0.75   0.77272727 
  199000       450000          108    -524580.5        15985        15091   0.77222222   0.76262626 
  200000       450000          108   -525748.02        16985        16030   0.72222222   0.78535354 
  201000       450000          108   -524582.83        17985        16981   0.79444444   0.75252525 
  202000       450000          108   -525887.17        18985        17926   0.72777778   0.78282828 
  203000       450000          108   -525333.73        19985        18874         0.75   0.77272727 
  204000       450000          108   -523731.55        20985        19807   0.78333333   0.75757576 
  205000       450000          108   -523158.47        21985        20757   0.76666667   0.76515152 
  206000       450000          108   -525187.27        22985        21689   0.76666667   0.76515152 
  207000       450000          108   -524701.53        23985        22642   0.76666667   0.76515152 
  208000       450000          108   -525460.29        24985        23586   0.79444444   0.75252525 
  209000       450000          108   -524387.43        25985        24518   0.77222222   0.76262626 
  210000       450000          108   -523851.39        26985        25472         0.75   0.77272727 
  211000       450000          108    -524364.5        27985        26410   0.76111111   0.76767677 
  212000       450000          108   -525145.41        28985        27335   0.79444444   0.75252525 
  213000       450000          108   -525206.06        29985        28278   0.76666667   0.76515152 
  214000       450000          108   -526447.33        30985        29213         0.75   0.77272727 
  215000       450000          108   -524191.83        31985        30148   0.76666667   0.76515152 
  216000       450000          108   -524697.92        32985        31093   0.73333333   0.78030303 
  217000       450000          108   -525909.19        33985        32041   0.80555556   0.74747475 
  218000       450000          108   -523943.46        34985        32990   0.73333333   0.78030303 
  219000       450000          108   -525244.07        35985        33950   0.77222222   0.76262626 
  220000       450000          108   -525010.05        36985        34890   0.77222222   0.76262626 
  221000       450000          108   -524924.66        37985        35834   0.78888889   0.75505051 
  222000       450000          108   -524590.34        38985        36774   0.76111111   0.76767677 
  223000       450000          108   -525554.17        39985        37724   0.77222222   0.76262626 
  224000       450000          108   -526146.46        40985        38673   0.76666667   0.76515152 
  225000       450000          108   -523309.08        41985        39624   0.76666667   0.76515152 
  226000       450000          108   -525521.51        42985        40563   0.76666667   0.76515152 
  227000       450000          108   -524510.23        43985        41505   0.73888889   0.77777778 
  228000       450000          108   -523216.98        44985        42452         0.75   0.77272727 
  229000       450000          108    -524527.9        45985        43384   0.83888889   0.73232323 
  230000       450000          108    -525327.3        46985        44311   0.78888889   0.75505051 
  231000       450000          108    -524642.3        47985        45268   0.78888889   0.75505051 
  232000       450000          108   -524892.11        48985        46204   0.77777778   0.76010101 
  233000       450000          108   -524310.61        49985        47137         0.75   0.77272727 
  234000       450000          108   -526066.97        50985        48064   0.75555556   0.77020202 
  235000       450000          108   -524419.91        51985        49013   0.82222222   0.73989899 
  236000       450000          108   -525902.52        52985        49948   0.82222222   0.73989899 
  237000       450000          108   -525383.33        53985        50892   0.80555556   0.74747475 
  238000       450000          108    -524718.5        54985        51831   0.76666667   0.76515152 
  239000       450000          108   -524515.28        55985        52775   0.70555556   0.79292929 
  240000       450000          108   -524838.42        56985        53722   0.77222222   0.76262626 
  241000       450000          108   -524624.52        57985        54655   0.76666667   0.76515152 
  242000       450000          108   -524803.56        58985        55590   0.81111111   0.74494949 
  243000       450000          108   -523512.22        59985        56535   0.77777778   0.76010101 
  244000       450000          108   -526069.36        60985        57487   0.75555556   0.77020202 
  245000       450000          108   -524164.28        61985        58424   0.76111111   0.76767677 
  246000       450000          108   -524171.09        62985        59370   0.78333333   0.75757576 
  247000       450000          108   -524407.01        63985        60310          0.8         0.75 
  248000       450000          108   -524323.32        64985        61252   0.73888889   0.77777778 
  249000       450000          108   -524966.05        65985        62186   0.75555556   0.77020202 
  250000       450000          108   -524994.86        66985        63141   0.76666667   0.76515152 
  251000       450000          108   -523459.48        67985        64078   0.71666667   0.78787879 
  252000       450000          108   -524784.62        68985        65010         0.75   0.77272727 
  253000       450000          108   -524266.07        69985        65950   0.76666667   0.76515152 
  254000       450000          108   -524886.91        70985        66881   0.73888889   0.77777778 
  255000       450000          108   -525580.63        71985        67824   0.73888889   0.77777778 
  256000       450000          108   -525488.32        72985        68760   0.81111111   0.74494949 
  257000       450000          108   -525460.25        73985        69705   0.83333333   0.73484848 
  258000       450000          108   -524625.82        74985        70645   0.73888889   0.77777778 
  259000       450000          108   -525064.26        75985        71599   0.71111111   0.79040404 
  260000       450000          108   -524962.37        76985        72538   0.72222222   0.78535354 
  261000       450000          108   -522991.49        77985        73482   0.74444444   0.77525253 
  262000       450000          108    -525132.8        78985        74434   0.75555556   0.77020202 
  263000       450000          108   -525303.27        79985        75368   0.76666667   0.76515152 
  264000       450000          108   -524796.03        80985        76307   0.80555556   0.74747475 
  265000       450000          108   -524331.03        81985        77260   0.75555556   0.77020202 
  265959       450000          108   -524931.06        82944        78160   0.77777778   0.76010101 
Loop time of 5384.08 on 20 procs for 82944 steps with 2925 atoms

Performance: 0.666 ns/day, 36.062 hours/ns, 15.405 timesteps/s
99.4% CPU use with 20 MPI tasks x no OpenMP threads

MPI task timing breakdown:
Section |  min time  |  avg time  |  max time  |%varavg| %total
---------------------------------------------------------------
Pair    | 0.82794    | 108.37     | 198.11     | 696.7 |  2.01
Bond    | 0.059959   | 0.15243    | 0.34171    |  26.4 |  0.00
Kspace  | 922.41     | 1012.5     | 1120.5     | 229.4 | 18.81
Neigh   | 262.85     | 268.25     | 279.35     |  35.0 |  4.98
Comm    | 32.565     | 48.243     | 56.688     | 122.4 |  0.90
Output  | 0.013336   | 0.017106   | 0.02769    |   3.0 |  0.00
Modify  | 3941.5     | 3944.7     | 3949.3     |   5.1 | 73.27
Other   |            | 1.842      |            |       |  0.03

Nlocal:        146.250 ave         225 max           4 min
Histogram: 4 0 4 0 0 0 0 0 0 12
Nghost:        4051.95 ave        6316 max        2319 min
Histogram: 8 0 0 0 0 8 0 0 0 4
Neighs:        70084.1 ave      122110 max          69 min
Histogram: 4 0 4 0 0 0 3 1 0 8
FullNghs:      140170.0 ave      238698 max        1920 min
Histogram: 4 4 0 0 0 0 0 0 4 8

Total # of neighbors = 2803410
Ave neighs/atom = 958.43077
Ave special neighs/atom = 0.043076923
Neighbor list builds = 165888
Dangerous builds = 0

  variable cnum equal (${cnum}-1)
  variable cnum equal (108-1)

  unfix swp
  thermo_style custom step temp pe
  write_data  001-dbt_3x3_${layer}L_fa_${type}_${cnum}_${temp}K.data
  write_data  001-dbt_3x3_21L_fa_${type}_${cnum}_${temp}K.data
  write_data  001-dbt_3x3_21L_fa_tet_half_${cnum}_${temp}K.data
  write_data  001-dbt_3x3_21L_fa_tet_half_107_${temp}K.data
  write_data  001-dbt_3x3_21L_fa_tet_half_107_450000K.data
System init for write_data ...
PPPM initialization ...
  using 12-bit tables for long-range coulomb (../kspace.cpp:340)
  G vector (1/distance) = 0.29588697
  grid = 45 45 200
  stencil order = 5
  estimated absolute RMS force accuracy = 0.00034195275
  estimated relative force accuracy = 1.0297805e-06
  using double precision KISS FFT
  3d grid and FFT values/proc = 144150 77234

next temp
jump SELF minimize_temp

  variable ftemp equal v_temp

  # Minimize O-H bond
  group  immobile_1 type 1 2 3 6 7 8
2907 atoms in group immobile_1
  fix  freeze immobile_1 setforce 0.0 0.0 0.0
  minimize  1.0e-6 1.0e-9 1000 10000
PPPM initialization ...
  using 12-bit tables for long-range coulomb (../kspace.cpp:340)
  G vector (1/distance) = 0.29588697
  grid = 45 45 200
  stencil order = 5
  estimated absolute RMS force accuracy = 0.00034195275
  estimated relative force accuracy = 1.0297805e-06
  using double precision KISS FFT
  3d grid and FFT values/proc = 144150 77234
Per MPI rank memory allocation (min/avg/max) = 14.01 | 16.77 | 24.40 Mbytes
Step Temp PotEng 
  265959            0   -524931.06 
  265965            0   -524961.41 
Loop time of 0.191196 on 20 procs for 6 steps with 2925 atoms

99.3% CPU use with 20 MPI tasks x no OpenMP threads

Minimization stats:
  Stopping criterion = energy tolerance
  Energy initial, next-to-last, final = 
     -524931.062627776  -524961.083900247  -524961.414530327
  Force two-norm initial, final = 181.06202 24.587172
  Force max component initial, final = 84.553915 11.070068
  Final line search alpha, max atom move = 0.0097795055 0.10825979
  Iterations, force evaluations = 6 12

MPI task timing breakdown:
Section |  min time  |  avg time  |  max time  |%varavg| %total
---------------------------------------------------------------
Pair    | 0.00018925 | 0.025566   | 0.046677   |  10.6 | 13.37
Bond    | 1.9255e-05 | 4.4129e-05 | 0.00011261 |   0.0 |  0.02
Kspace  | 0.13924    | 0.16047    | 0.18595    |   4.3 | 83.93
Neigh   | 0          | 0          | 0          |   0.0 |  0.00
Comm    | 0.0021249  | 0.0032962  | 0.0041447  |   1.3 |  1.72
Output  | 0          | 0          | 0          |   0.0 |  0.00
Modify  | 1.2498e-05 | 2.5425e-05 | 3.3251e-05 |   0.0 |  0.01
Other   |            | 0.00179    |            |       |  0.94

Nlocal:        146.250 ave         225 max           4 min
Histogram: 4 0 4 0 0 0 0 0 0 12
Nghost:        4051.95 ave        6316 max        2319 min
Histogram: 8 0 0 0 0 8 0 0 0 4
Neighs:        70084.1 ave      122110 max          69 min
Histogram: 4 0 4 0 0 0 3 1 0 8
FullNghs:      140170.0 ave      238698 max        1920 min
Histogram: 4 4 0 0 0 0 0 0 4 8

Total # of neighbors = 2803410
Ave neighs/atom = 958.43077
Ave special neighs/atom = 0.043076923
Neighbor list builds = 0
Dangerous builds = 0
  unfix  freeze
  group immobile_1 delete

  # Minimize formate
  group  immobile_2 type 6 7 8 9 10
2889 atoms in group immobile_2
  fix  freeze immobile_2 setforce 0.0 0.0 0.0
  minimize  1.0e-6 1.0e-9 1000 10000
PPPM initialization ...
  using 12-bit tables for long-range coulomb (../kspace.cpp:340)
  G vector (1/distance) = 0.29588697
  grid = 45 45 200
  stencil order = 5
  estimated absolute RMS force accuracy = 0.00034195275
  estimated relative force accuracy = 1.0297805e-06
  using double precision KISS FFT
  3d grid and FFT values/proc = 144150 77234
Per MPI rank memory allocation (min/avg/max) = 14.01 | 16.77 | 24.40 Mbytes
Step Temp PotEng 
  265965            0   -524961.41 
  265988            0   -525018.06 
Loop time of 0.645314 on 20 procs for 23 steps with 2925 atoms

99.4% CPU use with 20 MPI tasks x no OpenMP threads

Minimization stats:
  Stopping criterion = energy tolerance
  Energy initial, next-to-last, final = 
     -524961.414530327  -525017.696593258  -525018.063492415
  Force two-norm initial, final = 125.25061 32.246539
  Force max component initial, final = 45.149022 12.556354
  Final line search alpha, max atom move = 0.0038102816 0.047843244
  Iterations, force evaluations = 23 43

MPI task timing breakdown:
Section |  min time  |  avg time  |  max time  |%varavg| %total
---------------------------------------------------------------
Pair    | 0.00059019 | 0.087007   | 0.15283    |  19.6 | 13.48
Bond    | 5.7482e-05 | 0.00014917 | 0.00035999 |   0.0 |  0.02
Kspace  | 0.47221    | 0.53848    | 0.62525    |   8.0 | 83.45
Neigh   | 0.0031408  | 0.0032197  | 0.0033535  |   0.1 |  0.50
Comm    | 0.0078472  | 0.012108   | 0.01513    |   2.4 |  1.88
Output  | 0          | 0          | 0          |   0.0 |  0.00
Modify  | 5.7048e-05 | 8.9979e-05 | 0.0001131  |   0.0 |  0.01
Other   |            | 0.004257   |            |       |  0.66

Nlocal:        146.250 ave         225 max           4 min
Histogram: 4 0 4 0 0 0 0 0 0 12
Nghost:        4051.65 ave        6316 max        2316 min
Histogram: 8 0 0 0 0 8 0 0 0 4
Neighs:        70083.4 ave      122110 max          69 min
Histogram: 4 0 4 0 0 0 3 1 0 8
FullNghs:      140170.0 ave      238698 max        1920 min
Histogram: 4 4 0 0 0 0 0 0 4 8

Total # of neighbors = 2803410
Ave neighs/atom = 958.43077
Ave special neighs/atom = 0.043076923
Neighbor list builds = 1
Dangerous builds = 0
  unfix  freeze
  group immobile_2 delete

  # Electrostatic relaxation
  fix  swp fe atom/swap 1 1 ${rand} ${temp} ke no types 6 7
  fix  swp fe atom/swap 1 1 4574249 ${temp} ke no types 6 7
  fix  swp fe atom/swap 1 1 4574249 405000 ke no types 6 7
  thermo 1000
  thermo_style custom step v_ftemp v_cnum pe f_swp[1] f_swp[2] v_rfet3 v_rfeo3
  run ${nsteps}
  run 82944
PPPM initialization ...
  using 12-bit tables for long-range coulomb (../kspace.cpp:340)
  G vector (1/distance) = 0.29588697
  grid = 45 45 200
  stencil order = 5
  estimated absolute RMS force accuracy = 0.00034195275
  estimated relative force accuracy = 1.0297805e-06
  using double precision KISS FFT
  3d grid and FFT values/proc = 144150 77234
Per MPI rank memory allocation (min/avg/max) = 12.88 | 15.64 | 23.27 Mbytes
Step v_ftemp v_cnum PotEng f_swp[1] f_swp[2] v_rfet3 v_rfeo3 
  265988       405000          107   -525018.06            0            0   0.80555556   0.74747475 
  266000       405000          107   -524725.87           12           11   0.81111111   0.74494949 
  267000       405000          107   -524834.47         1012          943   0.77222222   0.76262626 
  268000       405000          107    -525364.4         2012         1894   0.73888889   0.77777778 
  269000       405000          107   -524754.58         3012         2835   0.78888889   0.75505051 
  270000       405000          107   -525228.47         4012         3776   0.77222222   0.76262626 
  271000       405000          107   -526218.66         5012         4700   0.81111111   0.74494949 
  272000       405000          107   -525294.45         6012         5645   0.76666667   0.76515152 
  273000       405000          107   -524648.38         7012         6578   0.76111111   0.76767677 
  274000       405000          107   -525210.54         8012         7510   0.79444444   0.75252525 
  275000       405000          107   -525487.21         9012         8458   0.73333333   0.78030303 
  276000       405000          107   -526061.49        10012         9396   0.74444444   0.77525253 
  277000       405000          107   -523350.52        11012        10332   0.76111111   0.76767677 
  278000       405000          107   -523576.98        12012        11253   0.72777778   0.78282828 
  279000       405000          107   -525031.23        13012        12180   0.72777778   0.78282828 
  280000       405000          107   -523938.44        14012        13118   0.77222222   0.76262626 
  281000       405000          107   -523955.93        15012        14061   0.68333333    0.8030303 
  282000       405000          107    -524099.9        16012        15004   0.73888889   0.77777778 
  283000       405000          107   -524988.15        17012        15937         0.75   0.77272727 
  284000       405000          107   -525636.94        18012        16861   0.76111111   0.76767677 
  285000       405000          107   -526345.01        19012        17796   0.78888889   0.75505051 
  286000       405000          107   -526016.72        20012        18745   0.78333333   0.75757576 
  287000       405000          107    -525098.7        21012        19690   0.75555556   0.77020202 
  288000       405000          107   -523686.85        22012        20630          0.8         0.75 
  289000       405000          107   -525742.98        23012        21570   0.78333333   0.75757576 
  290000       405000          107   -524316.75        24012        22522         0.75   0.77272727 
  291000       405000          107   -523190.13        25012        23466   0.76111111   0.76767677 
  292000       405000          107   -525520.76        26012        24406   0.78333333   0.75757576 
  293000       405000          107   -524815.04        27012        25335   0.76111111   0.76767677 
  294000       405000          107   -525394.23        28012        26262   0.80555556   0.74747475 
  295000       405000          107   -525762.84        29012        27209   0.76666667   0.76515152 
  296000       405000          107   -524019.48        30012        28146   0.75555556   0.77020202 
  297000       405000          107   -523629.25        31012        29088          0.8         0.75 
  298000       405000          107   -525084.77        32012        30018   0.77222222   0.76262626 
  299000       405000          107   -525208.46        33012        30958   0.78888889   0.75505051 
  300000       405000          107   -523593.45        34012        31886          0.8         0.75 
  301000       405000          107    -523494.4        35012        32803   0.78333333   0.75757576 
  302000       405000          107   -525550.07        36012        33749   0.76666667   0.76515152 
  303000       405000          107   -525771.36        37012        34693         0.75   0.77272727 
  304000       405000          107   -525339.15        38012        35632   0.76111111   0.76767677 
  305000       405000          107      -526015        39012        36554   0.81111111   0.74494949 
  306000       405000          107   -523832.54        40012        37482   0.73888889   0.77777778 
  307000       405000          107   -523106.52        41012        38414   0.74444444   0.77525253 
  308000       405000          107   -525034.27        42012        39352   0.74444444   0.77525253 
  309000       405000          107   -524221.26        43012        40286   0.76666667   0.76515152 
  310000       405000          107    -525612.8        44012        41226   0.74444444   0.77525253 
  311000       405000          107   -525266.56        45012        42155   0.75555556   0.77020202 
  312000       405000          107   -525329.14        46012        43089   0.74444444   0.77525253 
  313000       405000          107   -526123.87        47012        44032         0.75   0.77272727 
  314000       405000          107   -524880.74        48012        44977   0.71666667   0.78787879 
  315000       405000          107   -525143.84        49012        45901   0.72222222   0.78535354 
  316000       405000          107   -524503.44        50012        46848   0.73333333   0.78030303 
  317000       405000          107    -525265.1        51012        47794   0.76111111   0.76767677 
  318000       405000          107    -525029.4        52012        48730   0.76666667   0.76515152 
  319000       405000          107   -524816.46        53012        49663   0.76666667   0.76515152 
  320000       405000          107   -525310.61        54012        50586   0.78888889   0.75505051 
  321000       405000          107   -524876.38        55012        51512   0.72777778   0.78282828 
  322000       405000          107   -524665.43        56012        52444         0.75   0.77272727 
  323000       405000          107   -523405.58        57012        53394   0.76111111   0.76767677 
  324000       405000          107   -525825.94        58012        54332         0.75   0.77272727 
  325000       405000          107   -524801.12        59012        55252   0.73888889   0.77777778 
  326000       405000          107   -525304.04        60012        56189   0.76111111   0.76767677 
  327000       405000          107   -525153.31        61012        57128   0.75555556   0.77020202 
  328000       405000          107   -525643.97        62012        58074   0.77222222   0.76262626 
  329000       405000          107   -525531.52        63012        59026   0.80555556   0.74747475 
  330000       405000          107   -525474.06        64012        59964   0.75555556   0.77020202 
  331000       405000          107    -525691.6        65012        60897   0.74444444   0.77525253 
  332000       405000          107   -524318.54        66012        61829   0.72222222   0.78535354 
  333000       405000          107   -524740.22        67012        62763   0.77222222   0.76262626 
  334000       405000          107   -525037.12        68012        63710   0.76111111   0.76767677 
  335000       405000          107   -525888.37        69012        64639   0.77777778   0.76010101 
  336000       405000          107    -524419.7        70012        65578   0.78333333   0.75757576 
  337000       405000          107    -524897.1        71012        66518   0.76666667   0.76515152 
  338000       405000          107   -525807.22        72012        67458   0.75555556   0.77020202 
  339000       405000          107   -525725.03        73012        68394   0.77222222   0.76262626 
  340000       405000          107   -523674.97        74012        69322   0.72222222   0.78535354 
  341000       405000          107   -524918.66        75012        70258         0.75   0.77272727 
  342000       405000          107   -526047.55        76012        71191   0.78888889   0.75505051 
  343000       405000          107   -524106.32        77012        72126   0.73333333   0.78030303 
  344000       405000          107    -524732.9        78012        73066   0.77777778   0.76010101 
  345000       405000          107   -524973.26        79012        74007         0.75   0.77272727 
  346000       405000          107   -523526.61        80012        74945   0.75555556   0.77020202 
  347000       405000          107   -525938.46        81012        75885   0.76111111   0.76767677 
  348000       405000          107   -525155.33        82012        76825   0.78888889   0.75505051 
  348932       405000          107   -525165.03        82944        77698   0.76666667   0.76515152 
Loop time of 5363.5 on 20 procs for 82944 steps with 2925 atoms

Performance: 0.668 ns/day, 35.925 hours/ns, 15.465 timesteps/s
99.4% CPU use with 20 MPI tasks x no OpenMP threads

MPI task timing breakdown:
Section |  min time  |  avg time  |  max time  |%varavg| %total
---------------------------------------------------------------
Pair    | 0.80955    | 108.42     | 195.7      | 696.2 |  2.02
Bond    | 0.060086   | 0.15525    | 0.37659    |  27.3 |  0.00
Kspace  | 923.5      | 1011.1     | 1119.2     | 229.5 | 18.85
Neigh   | 262.36     | 267.75     | 278.63     |  34.6 |  4.99
Comm    | 32.367     | 47.753     | 56.206     | 121.5 |  0.89
Output  | 0.013368   | 0.017186   | 0.029286   |   3.2 |  0.00
Modify  | 3923.2     | 3926.5     | 3931       |   5.0 | 73.21
Other   |            | 1.853      |            |       |  0.03

Nlocal:        146.250 ave         225 max           4 min
Histogram: 4 0 4 0 0 0 0 0 0 12
Nghost:        4051.65 ave        6316 max        2316 min
Histogram: 8 0 0 0 0 8 0 0 0 4
Neighs:        70083.5 ave      122110 max          69 min
Histogram: 4 0 4 0 0 0 3 1 0 8
FullNghs:      140170.0 ave      238698 max        1920 min
Histogram: 4 4 0 0 0 0 0 0 4 8

Total # of neighbors = 2803410
Ave neighs/atom = 958.43077
Ave special neighs/atom = 0.043076923
Neighbor list builds = 165888
Dangerous builds = 0

  variable cnum equal (${cnum}-1)
  variable cnum equal (107-1)

  unfix swp
  thermo_style custom step temp pe
  write_data  001-dbt_3x3_${layer}L_fa_${type}_${cnum}_${temp}K.data
  write_data  001-dbt_3x3_21L_fa_${type}_${cnum}_${temp}K.data
  write_data  001-dbt_3x3_21L_fa_tet_half_${cnum}_${temp}K.data
  write_data  001-dbt_3x3_21L_fa_tet_half_106_${temp}K.data
  write_data  001-dbt_3x3_21L_fa_tet_half_106_405000K.data
System init for write_data ...
PPPM initialization ...
  using 12-bit tables for long-range coulomb (../kspace.cpp:340)
  G vector (1/distance) = 0.29588697
  grid = 45 45 200
  stencil order = 5
  estimated absolute RMS force accuracy = 0.00034195275
  estimated relative force accuracy = 1.0297805e-06
  using double precision KISS FFT
  3d grid and FFT values/proc = 144150 77234

next temp
jump SELF minimize_temp

  variable ftemp equal v_temp

  # Minimize O-H bond
  group  immobile_1 type 1 2 3 6 7 8
2907 atoms in group immobile_1
  fix  freeze immobile_1 setforce 0.0 0.0 0.0
  minimize  1.0e-6 1.0e-9 1000 10000
PPPM initialization ...
  using 12-bit tables for long-range coulomb (../kspace.cpp:340)
  G vector (1/distance) = 0.29588697
  grid = 45 45 200
  stencil order = 5
  estimated absolute RMS force accuracy = 0.00034195275
  estimated relative force accuracy = 1.0297805e-06
  using double precision KISS FFT
  3d grid and FFT values/proc = 144150 77234
Per MPI rank memory allocation (min/avg/max) = 14.01 | 16.77 | 24.40 Mbytes
Step Temp PotEng 
  348932            0   -525165.03 
  348937            0   -525189.07 
Loop time of 0.162411 on 20 procs for 5 steps with 2925 atoms

99.2% CPU use with 20 MPI tasks x no OpenMP threads

Minimization stats:
  Stopping criterion = energy tolerance
  Energy initial, next-to-last, final = 
     -525165.029035656  -525188.608257003  -525189.070841351
  Force two-norm initial, final = 148.83937 25.938941
  Force max component initial, final = 64.628597 10.218609
  Final line search alpha, max atom move = 0.011016244 0.11257069
  Iterations, force evaluations = 5 10

MPI task timing breakdown:
Section |  min time  |  avg time  |  max time  |%varavg| %total
---------------------------------------------------------------
Pair    | 0.00015465 | 0.021785   | 0.038981   |   9.8 | 13.41
Bond    | 1.5582e-05 | 3.5739e-05 | 8.6374e-05 |   0.0 |  0.02
Kspace  | 0.11877    | 0.1361     | 0.1578     |   4.0 | 83.80
Neigh   | 0          | 0          | 0          |   0.0 |  0.00
Comm    | 0.0018982  | 0.0028859  | 0.003566   |   1.2 |  1.78
Output  | 0          | 0          | 0          |   0.0 |  0.00
Modify  | 1.3812e-05 | 2.3568e-05 | 3.0678e-05 |   0.0 |  0.01
Other   |            | 0.001585   |            |       |  0.98

Nlocal:        146.250 ave         225 max           4 min
Histogram: 4 0 4 0 0 0 0 0 0 12
Nghost:        4051.65 ave        6316 max        2316 min
Histogram: 8 0 0 0 0 8 0 0 0 4
Neighs:        70083.5 ave      122110 max          69 min
Histogram: 4 0 4 0 0 0 3 1 0 8
FullNghs:      140170.0 ave      238698 max        1920 min
Histogram: 4 4 0 0 0 0 0 0 4 8

Total # of neighbors = 2803410
Ave neighs/atom = 958.43077
Ave special neighs/atom = 0.043076923
Neighbor list builds = 0
Dangerous builds = 0
  unfix  freeze
  group immobile_1 delete

  # Minimize formate
  group  immobile_2 type 6 7 8 9 10
2889 atoms in group immobile_2
  fix  freeze immobile_2 setforce 0.0 0.0 0.0
  minimize  1.0e-6 1.0e-9 1000 10000
PPPM initialization ...
  using 12-bit tables for long-range coulomb (../kspace.cpp:340)
  G vector (1/distance) = 0.29588697
  grid = 45 45 200
  stencil order = 5
  estimated absolute RMS force accuracy = 0.00034195275
  estimated relative force accuracy = 1.0297805e-06
  using double precision KISS FFT
  3d grid and FFT values/proc = 144150 77234
Per MPI rank memory allocation (min/avg/max) = 14.01 | 16.77 | 24.40 Mbytes
Step Temp PotEng 
  348937            0   -525189.07 
  348953            0   -525221.56 
Loop time of 0.473352 on 20 procs for 16 steps with 2925 atoms

99.2% CPU use with 20 MPI tasks x no OpenMP threads

Minimization stats:
  Stopping criterion = energy tolerance
  Energy initial, next-to-last, final = 
     -525189.070841351  -525221.227825708  -525221.555001192
  Force two-norm initial, final = 101.99631 27.765696
  Force max component initial, final = 31.978562 14.808798
  Final line search alpha, max atom move = 0.0056060996 0.083019599
  Iterations, force evaluations = 16 30

MPI task timing breakdown:
Section |  min time  |  avg time  |  max time  |%varavg| %total
---------------------------------------------------------------
Pair    | 0.00043523 | 0.061457   | 0.11       |  16.5 | 12.98
Bond    | 4.1785e-05 | 0.00010213 | 0.00026716 |   0.0 |  0.02
Kspace  | 0.351      | 0.39996    | 0.46127    |   6.6 | 84.50
Neigh   | 0          | 0          | 0          |   0.0 |  0.00
Comm    | 0.0057491  | 0.0085567  | 0.01067    |   2.0 |  1.81
Output  | 0          | 0          | 0          |   0.0 |  0.00
Modify  | 3.9437e-05 | 6.4466e-05 | 8.2233e-05 |   0.0 |  0.01
Other   |            | 0.00321    |            |       |  0.68

Nlocal:        146.250 ave         225 max           4 min
Histogram: 4 0 4 0 0 0 0 0 0 12
Nghost:        4051.65 ave        6316 max        2316 min
Histogram: 8 0 0 0 0 8 0 0 0 4
Neighs:        70083.8 ave      122110 max          69 min
Histogram: 4 0 4 0 0 0 3 1 0 8
FullNghs:      140170.0 ave      238698 max        1920 min
Histogram: 4 4 0 0 0 0 0 0 4 8

Total # of neighbors = 2803410
Ave neighs/atom = 958.43077
Ave special neighs/atom = 0.043076923
Neighbor list builds = 0
Dangerous builds = 0
  unfix  freeze
  group immobile_2 delete

  # Electrostatic relaxation
  fix  swp fe atom/swap 1 1 ${rand} ${temp} ke no types 6 7
  fix  swp fe atom/swap 1 1 5979850 ${temp} ke no types 6 7
  fix  swp fe atom/swap 1 1 5979850 364500 ke no types 6 7
  thermo 1000
  thermo_style custom step v_ftemp v_cnum pe f_swp[1] f_swp[2] v_rfet3 v_rfeo3
  run ${nsteps}
  run 82944
PPPM initialization ...
  using 12-bit tables for long-range coulomb (../kspace.cpp:340)
  G vector (1/distance) = 0.29588697
  grid = 45 45 200
  stencil order = 5
  estimated absolute RMS force accuracy = 0.00034195275
  estimated relative force accuracy = 1.0297805e-06
  using double precision KISS FFT
  3d grid and FFT values/proc = 144150 77234
Per MPI rank memory allocation (min/avg/max) = 12.88 | 15.64 | 23.27 Mbytes
Step v_ftemp v_cnum PotEng f_swp[1] f_swp[2] v_rfet3 v_rfeo3 
  348953       364500          106   -525221.56            0            0   0.77222222   0.76262626 
  349000       364500          106   -525245.78           47           42   0.73333333   0.78030303 
  350000       364500          106   -524904.12         1047          978   0.76111111   0.76767677 
  351000       364500          106   -525005.49         2047         1909   0.82222222   0.73989899 
  352000       364500          106   -524152.59         3047         2828   0.75555556   0.77020202 
  353000       364500          106   -524903.63         4047         3763         0.75   0.77272727 
  354000       364500          106   -524981.86         5047         4689   0.74444444   0.77525253 
  355000       364500          106   -523957.22         6047         5630   0.77222222   0.76262626 
  356000       364500          106   -524516.39         7047         6564   0.75555556   0.77020202 
  357000       364500          106   -524498.61         8047         7498          0.8         0.75 
  358000       364500          106   -525200.99         9047         8440   0.76111111   0.76767677 
  359000       364500          106   -524144.84        10047         9363   0.81111111   0.74494949 
  360000       364500          106   -525242.26        11047        10301   0.78333333   0.75757576 
  361000       364500          106   -524010.69        12047        11238   0.76111111   0.76767677 
  362000       364500          106   -524267.31        13047        12169   0.77777778   0.76010101 
  363000       364500          106   -525977.03        14047        13102         0.75   0.77272727 
  364000       364500          106   -524426.34        15047        14047   0.78333333   0.75757576 
  365000       364500          106   -525208.64        16047        14984   0.73333333   0.78030303 
  366000       364500          106   -522514.07        17047        15916   0.78888889   0.75505051 
  367000       364500          106   -524941.68        18047        16850         0.75   0.77272727 
  368000       364500          106    -524849.5        19047        17786   0.74444444   0.77525253 
  369000       364500          106   -523593.63        20047        18706          0.8         0.75 
  370000       364500          106   -524827.55        21047        19621   0.72222222   0.78535354 
  371000       364500          106   -525056.28        22047        20551   0.72777778   0.78282828 
  372000       364500          106    -525184.4        23047        21481   0.77777778   0.76010101 
  373000       364500          106   -526468.72        24047        22407          0.8         0.75 
  374000       364500          106    -525784.5        25047        23350   0.76666667   0.76515152 
  375000       364500          106    -524765.2        26047        24277   0.73333333   0.78030303 
  376000       364500          106   -524932.21        27047        25193         0.75   0.77272727 
  377000       364500          106   -525014.61        28047        26129   0.74444444   0.77525253 
  378000       364500          106   -525166.55        29047        27059   0.76666667   0.76515152 
  379000       364500          106   -526266.54        30047        27987   0.74444444   0.77525253 
  380000       364500          106   -524029.56        31047        28915   0.70555556   0.79292929 
  381000       364500          106   -525155.11        32047        29855   0.76111111   0.76767677 
  382000       364500          106   -523602.86        33047        30804   0.76666667   0.76515152 
  383000       364500          106   -525305.41        34047        31747   0.78333333   0.75757576 
  384000       364500          106   -525162.63        35047        32674   0.71111111   0.79040404 
  385000       364500          106   -523628.07        36047        33595   0.81111111   0.74494949 
  386000       364500          106    -523240.1        37047        34522   0.78888889   0.75505051 
  387000       364500          106   -524165.67        38047        35435   0.71666667   0.78787879 
  388000       364500          106   -524579.82        39047        36372   0.73888889   0.77777778 
  389000       364500          106   -524750.73        40047        37307   0.73888889   0.77777778 
  390000       364500          106   -525132.06        41047        38238         0.75   0.77272727 
  391000       364500          106   -525367.89        42047        39172   0.80555556   0.74747475 
  392000       364500          106   -524961.31        43047        40098   0.76111111   0.76767677 
  393000       364500          106   -524109.26        44047        41018   0.77777778   0.76010101 
  394000       364500          106   -523747.22        45047        41947   0.72222222   0.78535354 
  395000       364500          106   -524013.69        46047        42870   0.73888889   0.77777778 
  396000       364500          106   -525498.96        47047        43822   0.76111111   0.76767677 
  397000       364500          106   -523701.62        48047        44759   0.78888889   0.75505051 
  398000       364500          106   -524770.74        49047        45679   0.76111111   0.76767677 
  399000       364500          106   -525260.52        50047        46625   0.77222222   0.76262626 
  400000       364500          106   -525260.81        51047        47539   0.71111111   0.79040404 
  401000       364500          106   -524078.21        52047        48471   0.78333333   0.75757576 
  402000       364500          106   -524621.71        53047        49396   0.78888889   0.75505051 
  403000       364500          106   -527330.22        54047        50321   0.78888889   0.75505051 
  404000       364500          106   -524909.38        55047        51252   0.75555556   0.77020202 
  405000       364500          106   -525009.34        56047        52189   0.77222222   0.76262626 
  406000       364500          106    -524209.3        57047        53116   0.78333333   0.75757576 
  407000       364500          106    -524835.5        58047        54037         0.75   0.77272727 
  408000       364500          106   -524766.07        59047        54951   0.83333333   0.73484848 
  409000       364500          106   -525191.02        60047        55880   0.77777778   0.76010101 
  410000       364500          106   -524548.39        61047        56815   0.78333333   0.75757576 
  411000       364500          106   -523874.79        62047        57750   0.81666667   0.74242424 
  412000       364500          106   -524464.86        63047        58676   0.77777778   0.76010101 
  413000       364500          106   -524745.61        64047        59603   0.73333333   0.78030303 
[...]
 9052000            2            2   -530324.84        76186            0            1   0.65909091 
 9053000            2            2   -530324.84        77186            0            1   0.65909091 
 9054000            2            2   -530324.84        78186            0            1   0.65909091 
 9055000            2            2   -530324.84        79186            0            1   0.65909091 
 9056000            2            2   -530324.84        80186            0            1   0.65909091 
 9057000            2            2   -530324.84        81186            0            1   0.65909091 
 9058000            2            2   -530324.84        82186            0            1   0.65909091 
 9058758            2            2   -530324.84        82944            0            1   0.65909091 
Loop time of 5245.3 on 20 procs for 82944 steps with 2925 atoms

Performance: 0.683 ns/day, 35.133 hours/ns, 15.813 timesteps/s
99.3% CPU use with 20 MPI tasks x no OpenMP threads

MPI task timing breakdown:
Section |  min time  |  avg time  |  max time  |%varavg| %total
---------------------------------------------------------------
Pair    | 0.75983    | 108.74     | 194.26     | 696.9 |  2.07
Bond    | 0.060936   | 0.15499    | 0.39239    |  29.8 |  0.00
Kspace  | 888.85     | 974.64     | 1083       | 234.2 | 18.58
Neigh   | 262.84     | 268.29     | 279.43     |  35.2 |  5.11
Comm    | 32.609     | 48.388     | 56.939     | 123.2 |  0.92
Output  | 0.013342   | 0.017046   | 0.025323   |   2.9 |  0.00
Modify  | 3840.1     | 3843.3     | 3848       |   5.2 | 73.27
Other   |            | 1.757      |            |       |  0.03

Nlocal:        146.250 ave         225 max           4 min
Histogram: 4 0 4 0 0 0 0 0 0 12
Nghost:        4051.35 ave        6316 max        2315 min
Histogram: 8 0 0 0 0 8 0 0 0 4
Neighs:        70087.1 ave      122110 max          70 min
Histogram: 4 0 4 0 0 0 3 1 0 8
FullNghs:      140170.0 ave      238698 max        1920 min
Histogram: 4 4 0 0 0 0 0 0 4 8

Total # of neighbors = 2803410
Ave neighs/atom = 958.43077
Ave special neighs/atom = 0.043076923
Neighbor list builds = 165888
Dangerous builds = 0

  variable cnum equal (${cnum}-1)
  variable cnum equal (2-1)

  unfix swp
  thermo_style custom step temp pe
  write_data  001-dbt_3x3_${layer}L_fa_${type}_${cnum}_${temp}K.data
  write_data  001-dbt_3x3_21L_fa_${type}_${cnum}_${temp}K.data
  write_data  001-dbt_3x3_21L_fa_tet_half_${cnum}_${temp}K.data
  write_data  001-dbt_3x3_21L_fa_tet_half_1_${temp}K.data
  write_data  001-dbt_3x3_21L_fa_tet_half_1_2K.data
System init for write_data ...
PPPM initialization ...
  using 12-bit tables for long-range coulomb (../kspace.cpp:340)
  G vector (1/distance) = 0.29588697
  grid = 45 45 200
  stencil order = 5
  estimated absolute RMS force accuracy = 0.00034195275
  estimated relative force accuracy = 1.0297805e-06
  using double precision KISS FFT
  3d grid and FFT values/proc = 144150 77234

next temp
jump SELF minimize_temp

  variable ftemp equal v_temp

  # Minimize O-H bond
  group  immobile_1 type 1 2 3 6 7 8
2907 atoms in group immobile_1
  fix  freeze immobile_1 setforce 0.0 0.0 0.0
  minimize  1.0e-6 1.0e-9 1000 10000
PPPM initialization ...
  using 12-bit tables for long-range coulomb (../kspace.cpp:340)
  G vector (1/distance) = 0.29588697
  grid = 45 45 200
  stencil order = 5
  estimated absolute RMS force accuracy = 0.00034195275
  estimated relative force accuracy = 1.0297805e-06
  using double precision KISS FFT
  3d grid and FFT values/proc = 144150 77234
Per MPI rank memory allocation (min/avg/max) = 14.01 | 16.77 | 24.40 Mbytes
Step Temp PotEng 
 9058758            0   -530324.84 
 9058759            0   -530324.84 
Loop time of 0.043646 on 20 procs for 1 steps with 2925 atoms

98.4% CPU use with 20 MPI tasks x no OpenMP threads

Minimization stats:
  Stopping criterion = energy tolerance
  Energy initial, next-to-last, final = 
     -530324.843076189  -530324.843076189  -530324.843128784
  Force two-norm initial, final = 0.12540689 0.10188144
  Force max component initial, final = 0.050808066 0.037184188
  Final line search alpha, max atom move = 1.0000000 0.037184188
  Iterations, force evaluations = 1 2

MPI task timing breakdown:
Section |  min time  |  avg time  |  max time  |%varavg| %total
---------------------------------------------------------------
Pair    | 4.638e-05  | 0.005879   | 0.010712   |   5.1 | 13.47
Bond    | 4.268e-06  | 1.0158e-05 | 2.3849e-05 |   0.0 |  0.02
Kspace  | 0.031194   | 0.036054   | 0.041914   |   2.1 | 82.61
Neigh   | 0          | 0          | 0          |   0.0 |  0.00
Comm    | 0.00047153 | 0.00075503 | 0.00093413 |   0.0 |  1.73
Output  | 0          | 0          | 0          |   0.0 |  0.00
Modify  | 3.4191e-06 | 6.1935e-06 | 7.7878e-06 |   0.0 |  0.01
Other   |            | 0.0009417  |            |       |  2.16

Nlocal:        146.250 ave         225 max           4 min
Histogram: 4 0 4 0 0 0 0 0 0 12
Nghost:        4051.35 ave        6316 max        2315 min
Histogram: 8 0 0 0 0 8 0 0 0 4
Neighs:        70087.1 ave      122110 max          70 min
Histogram: 4 0 4 0 0 0 3 1 0 8
FullNghs:      140170.0 ave      238698 max        1920 min
Histogram: 4 4 0 0 0 0 0 0 4 8

Total # of neighbors = 2803410
Ave neighs/atom = 958.43077
Ave special neighs/atom = 0.043076923
Neighbor list builds = 0
Dangerous builds = 0
  unfix  freeze
  group immobile_1 delete

  # Minimize formate
  group  immobile_2 type 6 7 8 9 10
2889 atoms in group immobile_2
  fix  freeze immobile_2 setforce 0.0 0.0 0.0
  minimize  1.0e-6 1.0e-9 1000 10000
PPPM initialization ...
  using 12-bit tables for long-range coulomb (../kspace.cpp:340)
  G vector (1/distance) = 0.29588697
  grid = 45 45 200
  stencil order = 5
  estimated absolute RMS force accuracy = 0.00034195275
  estimated relative force accuracy = 1.0297805e-06
  using double precision KISS FFT
  3d grid and FFT values/proc = 144150 77234
Per MPI rank memory allocation (min/avg/max) = 14.01 | 16.77 | 24.40 Mbytes
Step Temp PotEng 
 9058759            0   -530324.84 
 9058760            0   -530324.87 
Loop time of 0.0434083 on 20 procs for 1 steps with 2925 atoms

98.6% CPU use with 20 MPI tasks x no OpenMP threads

Minimization stats:
  Stopping criterion = energy tolerance
  Energy initial, next-to-last, final = 
     -530324.843128784  -530324.843128784  -530324.866264096
  Force two-norm initial, final = 10.106429 8.3185983
  Force max component initial, final = 3.4360399 1.9443748
  Final line search alpha, max atom move = 0.029103271 0.056587665
  Iterations, force evaluations = 1 2

MPI task timing breakdown:
Section |  min time  |  avg time  |  max time  |%varavg| %total
---------------------------------------------------------------
Pair    | 4.6696e-05 | 0.0058783  | 0.010738   |   5.1 | 13.54
Bond    | 4.4639e-06 | 1.0146e-05 | 2.4687e-05 |   0.0 |  0.02
Kspace  | 0.030902   | 0.035806   | 0.041655   |   2.1 | 82.49
Neigh   | 0          | 0          | 0          |   0.0 |  0.00
Comm    | 0.00046933 | 0.00073687 | 0.00091417 |   0.0 |  1.70
Output  | 0          | 0          | 0          |   0.0 |  0.00
Modify  | 3.7248e-06 | 6.3925e-06 | 8.154e-06  |   0.0 |  0.01
Other   |            | 0.0009707  |            |       |  2.24

Nlocal:        146.250 ave         225 max           4 min
Histogram: 4 0 4 0 0 0 0 0 0 12
Nghost:        4051.35 ave        6316 max        2315 min
Histogram: 8 0 0 0 0 8 0 0 0 4
Neighs:        70087.1 ave      122110 max          70 min
Histogram: 4 0 4 0 0 0 3 1 0 8
FullNghs:      140170.0 ave      238698 max        1920 min
Histogram: 4 4 0 0 0 0 0 0 4 8

Total # of neighbors = 2803410
Ave neighs/atom = 958.43077
Ave special neighs/atom = 0.043076923
Neighbor list builds = 0
Dangerous builds = 0
  unfix  freeze
  group immobile_2 delete

  # Electrostatic relaxation
  fix  swp fe atom/swap 1 1 ${rand} ${temp} ke no types 6 7
  fix  swp fe atom/swap 1 1 4097646 ${temp} ke no types 6 7
  fix  swp fe atom/swap 1 1 4097646 1 ke no types 6 7
  thermo 1000
  thermo_style custom step v_ftemp v_cnum pe f_swp[1] f_swp[2] v_rfet3 v_rfeo3
  run ${nsteps}
  run 82944
PPPM initialization ...
  using 12-bit tables for long-range coulomb (../kspace.cpp:340)
  G vector (1/distance) = 0.29588697
  grid = 45 45 200
  stencil order = 5
  estimated absolute RMS force accuracy = 0.00034195275
  estimated relative force accuracy = 1.0297805e-06
  using double precision KISS FFT
  3d grid and FFT values/proc = 144150 77234
Per MPI rank memory allocation (min/avg/max) = 12.88 | 15.64 | 23.27 Mbytes
Step v_ftemp v_cnum PotEng f_swp[1] f_swp[2] v_rfet3 v_rfeo3 
 9058760            1            1   -530324.87            0            0            1   0.65909091 
 9059000            1            1   -530324.87          240            0            1   0.65909091 
 9060000            1            1   -530324.87         1240            0            1   0.65909091 
 9061000            1            1   -530324.87         2240            0            1   0.65909091 
 9062000            1            1   -530324.87         3240            0            1   0.65909091 
 9063000            1            1   -530324.87         4240            0            1   0.65909091 
 9064000            1            1   -530324.87         5240            0            1   0.65909091 
 9065000            1            1   -530324.87         6240            0            1   0.65909091 
 9066000            1            1   -530324.87         7240            0            1   0.65909091 
 9067000            1            1   -530324.87         8240            0            1   0.65909091 
 9068000            1            1   -530324.87         9240            0            1   0.65909091 
 9069000            1            1   -530324.87        10240            0            1   0.65909091 
 9070000            1            1   -530324.87        11240            0            1   0.65909091 
 9071000            1            1   -530324.87        12240            0            1   0.65909091 
 9072000            1            1   -530324.87        13240            0            1   0.65909091 
 9073000            1            1   -530324.87        14240            0            1   0.65909091 
 9074000            1            1   -530324.87        15240            0            1   0.65909091 
 9075000            1            1   -530324.87        16240            0            1   0.65909091 
 9076000            1            1   -530324.87        17240            0            1   0.65909091 
 9077000            1            1   -530324.87        18240            0            1   0.65909091 
 9078000            1            1   -530324.87        19240            0            1   0.65909091 
 9079000            1            1   -530324.87        20240            0            1   0.65909091 
 9080000            1            1   -530324.87        21240            0            1   0.65909091 
 9081000            1            1   -530324.87        22240            0            1   0.65909091 
 9082000            1            1   -530324.87        23240            0            1   0.65909091 
 9083000            1            1   -530324.87        24240            0            1   0.65909091 
 9084000            1            1   -530324.87        25240            0            1   0.65909091 
 9085000            1            1   -530324.87        26240            0            1   0.65909091 
 9086000            1            1   -530324.87        27240            0            1   0.65909091 
 9087000            1            1   -530324.87        28240            0            1   0.65909091 
 9088000            1            1   -530324.87        29240            0            1   0.65909091 
 9089000            1            1   -530324.87        30240            0            1   0.65909091 
 9090000            1            1   -530324.87        31240            0            1   0.65909091 
 9091000            1            1   -530324.87        32240            0            1   0.65909091 
 9092000            1            1   -530324.87        33240            0            1   0.65909091 
 9093000            1            1   -530324.87        34240            0            1   0.65909091 
 9094000            1            1   -530324.87        35240            0            1   0.65909091 
 9095000            1            1   -530324.87        36240            0            1   0.65909091 
 9096000            1            1   -530324.87        37240            0            1   0.65909091 
 9097000            1            1   -530324.87        38240            0            1   0.65909091 
 9098000            1            1   -530324.87        39240            0            1   0.65909091 
 9099000            1            1   -530324.87        40240            0            1   0.65909091 
 9100000            1            1   -530324.87        41240            0            1   0.65909091 
 9101000            1            1   -530324.87        42240            0            1   0.65909091 
 9102000            1            1   -530324.87        43240            0            1   0.65909091 
 9103000            1            1   -530324.87        44240            0            1   0.65909091 
 9104000            1            1   -530324.87        45240            0            1   0.65909091 
 9105000            1            1   -530324.87        46240            0            1   0.65909091 
 9106000            1            1   -530324.87        47240            0            1   0.65909091 
 9107000            1            1   -530324.87        48240            0            1   0.65909091 
 9108000            1            1   -530324.87        49240            0            1   0.65909091 
 9109000            1            1   -530324.87        50240            0            1   0.65909091 
 9110000            1            1   -530324.87        51240            0            1   0.65909091 
 9111000            1            1   -530324.87        52240            0            1   0.65909091 
 9112000            1            1   -530324.87        53240            0            1   0.65909091 
 9113000            1            1   -530324.87        54240            0            1   0.65909091 
 9114000            1            1   -530324.87        55240            0            1   0.65909091 
 9115000            1            1   -530324.87        56240            0            1   0.65909091 
 9116000            1            1   -530324.87        57240            0            1   0.65909091 
 9117000            1            1   -530324.87        58240            0            1   0.65909091 
 9118000            1            1   -530324.87        59240            0            1   0.65909091 
 9119000            1            1   -530324.87        60240            0            1   0.65909091 
 9120000            1            1   -530324.87        61240            0            1   0.65909091 
 9121000            1            1   -530324.87        62240            0            1   0.65909091 
 9122000            1            1   -530324.87        63240            0            1   0.65909091 
 9123000            1            1   -530324.87        64240            0            1   0.65909091 
 9124000            1            1   -530324.87        65240            0            1   0.65909091 
 9125000            1            1   -530324.87        66240            0            1   0.65909091 
 9126000            1            1   -530324.87        67240            0            1   0.65909091 
 9127000            1            1   -530324.87        68240            0            1   0.65909091 
 9128000            1            1   -530324.87        69240            0            1   0.65909091 
 9129000            1            1   -530324.87        70240            0            1   0.65909091 
 9130000            1            1   -530324.87        71240            0            1   0.65909091 
 9131000            1            1   -530324.87        72240            0            1   0.65909091 
 9132000            1            1   -530324.87        73240            0            1   0.65909091 
 9133000            1            1   -530324.87        74240            0            1   0.65909091 
 9134000            1            1   -530324.87        75240            0            1   0.65909091 
 9135000            1            1   -530324.87        76240            0            1   0.65909091 
 9136000            1            1   -530324.87        77240            0            1   0.65909091 
 9137000            1            1   -530324.87        78240            0            1   0.65909091 
 9138000            1            1   -530324.87        79240            0            1   0.65909091 
 9139000            1            1   -530324.87        80240            0            1   0.65909091 
 9140000            1            1   -530324.87        81240            0            1   0.65909091 
 9141000            1            1   -530324.87        82240            0            1   0.65909091 
 9141704            1            1   -530324.87        82944            0            1   0.65909091 
Loop time of 5180.52 on 20 procs for 82944 steps with 2925 atoms

Performance: 0.692 ns/day, 34.699 hours/ns, 16.011 timesteps/s
99.3% CPU use with 20 MPI tasks x no OpenMP threads

MPI task timing breakdown:
Section |  min time  |  avg time  |  max time  |%varavg| %total
---------------------------------------------------------------
Pair    | 0.73203    | 108.42     | 193.96     | 696.4 |  2.09
Bond    | 0.062629   | 0.15417    | 0.3973     |  29.3 |  0.00
Kspace  | 873.12     | 958.82     | 1066.9     | 235.6 | 18.51
Neigh   | 261.3      | 266.72     | 277.74     |  34.9 |  5.15
Comm    | 32.406     | 48.156     | 56.556     | 123.1 |  0.93
Output  | 0.014074   | 0.0177     | 0.025596   |   2.7 |  0.00
Modify  | 3793.2     | 3796.5     | 3801.1     |   5.2 | 73.28
Other   |            | 1.739      |            |       |  0.03

Nlocal:        146.250 ave         225 max           4 min
Histogram: 4 0 4 0 0 0 0 0 0 12
Nghost:        4051.35 ave        6316 max        2315 min
Histogram: 8 0 0 0 0 8 0 0 0 4
Neighs:        70087.1 ave      122110 max          70 min
Histogram: 4 0 4 0 0 0 3 1 0 8
FullNghs:      140170.0 ave      238698 max        1920 min
Histogram: 4 4 0 0 0 0 0 0 4 8

Total # of neighbors = 2803410
Ave neighs/atom = 958.43077
Ave special neighs/atom = 0.043076923
Neighbor list builds = 165888
Dangerous builds = 0

  variable cnum equal (${cnum}-1)
  variable cnum equal (1-1)

  unfix swp
  thermo_style custom step temp pe
  write_data  001-dbt_3x3_${layer}L_fa_${type}_${cnum}_${temp}K.data
  write_data  001-dbt_3x3_21L_fa_${type}_${cnum}_${temp}K.data
  write_data  001-dbt_3x3_21L_fa_tet_half_${cnum}_${temp}K.data
  write_data  001-dbt_3x3_21L_fa_tet_half_0_${temp}K.data
  write_data  001-dbt_3x3_21L_fa_tet_half_0_1K.data
System init for write_data ...
PPPM initialization ...
  using 12-bit tables for long-range coulomb (../kspace.cpp:340)
  G vector (1/distance) = 0.29588697
  grid = 45 45 200
  stencil order = 5
  estimated absolute RMS force accuracy = 0.00034195275
  estimated relative force accuracy = 1.0297805e-06
  using double precision KISS FFT
  3d grid and FFT values/proc = 144150 77234

next temp
jump SELF minimize_temp

write_data  001-dbt_3x3_${layer}L_fa_${type}_qeq.data
write_data  001-dbt_3x3_21L_fa_${type}_qeq.data
write_data  001-dbt_3x3_21L_fa_tet_half_qeq.data
System init for write_data ...
PPPM initialization ...
  using 12-bit tables for long-range coulomb (../kspace.cpp:340)
  G vector (1/distance) = 0.29588697
  grid = 45 45 200
  stencil order = 5
  estimated absolute RMS force accuracy = 0.00034195275
  estimated relative force accuracy = 1.0297805e-06
  using double precision KISS FFT
  3d grid and FFT values/proc = 144150 77234
Total wall time: 162:56:09
