LAMMPS data file via write_data, version 17 Feb 2022, timestep = 455

4311 atoms
10 atom types
36 bonds
6 bond types
54 angles
6 angle types
0 dihedrals
2 dihedral types
9 impropers
2 improper types

0 25.44 xlo xhi
0 25.44 ylo yhi
-64.778423 32.908 zlo zhi

Masses

1 12.011
2 1.008
3 15.9994
4 15.9994
5 1.008
6 55.845
7 55.845
8 15.9994
9 15.9994
10 1.008

Pair Coeffs # lj/cut/coul/long

1 0.0988 3.31521
2 0.0161 2.4473
3 0.1463 3.04812
4 0.093 3.24287
5 0.0047 0.537925
6 9.0298e-07 4.9062
7 9.0298e-07 4.9062
8 0.1554 3.16554
9 0.1554 3.16554
10 0 0

Bond Coeffs # harmonic

1 361.8 1.105
2 652.57 1.218
3 383.13 1.351
4 563.51 0.973
5 554.135 1
6 0 2.08

Angle Coeffs # harmonic

1 51.617 106.55
2 65.93 123.65
3 65.262 109.49
4 115.745 122.1
5 118.817 130.25
6 30 109.47

Dihedral Coeffs # fourier

1 1 2.3 2 180
2 2 2.3 2 180 1.9 1 0

Improper Coeffs # cvff

1 10.5 -1 2
2 10.5 -1 2

Atoms # full

71 0 7 1.575 3.383170857081256 4.427038156062714 -52.01758049250975 0 0 0
78 0 6 1.05 6.6809288442517225 5.471333666771245 -53.095325790667495 0 0 0
3 0 6 1.05 0.20792275231722684 3.499933657974377 -53.716734908947245 0 0 0
74 0 6 1.05 4.569767172601524 7.597532381310575 -53.17300338395999 0 0 0
7 0 6 1.05 2.282292955841242 1.1473511456600138 -53.59130858864227 0 0 0
6 0 8 -1.05 2.082056974465104 3.1628816749899906 -52.71241788938432 0 0 0
75 0 8 -1.05 4.707586325862207 5.778246953093078 -52.072607444531755 0 0 0
70 0 8 -1.05 2.564468496766206 7.599104866507238 -52.86825143835494 0 0 0
4 0 8 -1.05 0.21608465978832347 1.272630597729739 -52.74048795214281 0 0 0
73 0 8 -1.05 4.210922303650639 7.805671648884609 -50.24673607212693 0 0 0
19 0 8 -1.05 6.731106042033802 3.411641027335389 -52.98476455410145 0 0 0
79 0 8 -1.05 6.944993444022575 5.214275052979653 -50.6907435817265 0 0 0
77 0 8 -1.05 6.569115303237657 7.461829018484433 -52.949477211489935 0 0 0
11 0 6 1.05 4.569815333751303 1.2775780254836258 -51.454270627260506 0 0 0
62 0 7 1.575 0.17125343141809476 5.52857306818768 -51.248096967597675 0 0 0
18 0 7 1.575 6.648187310841983 3.2964830397761955 -51.05709631026539 0 0 0
69 0 7 1.575 2.2552894438019186 7.606367471792939 -50.99511220911174 0 0 0
15 0 8 -1.05 6.5701485369276895 1.2706833810967786 -51.021694417321385 0 0 0
65 0 8 -1.05 0.1803789591396865 7.538599071282033 -51.072777422299154 0 0 0
14 0 8 -1.05 4.533421242327016 3.255681349411976 -50.88456872991546 0 0 0
66 0 8 -1.05 2.0820858067156953 5.420665711592465 -50.867235916317874 0 0 0
8 0 8 -1.05 2.4019804484456113 1.013286552126971 -50.76505141163855 0 0 0
10 0 8 -1.05 4.267556794753566 1.0376397373449755 -53.39235951108591 0 0 0
61 0 8 -1.05 0.06769286201197502 5.394277459269454 -53.13494580370362 0 0 0
2 0 8 -1.05 25.089101838323216 3.565364312068976 -51.105197448049644 -1 0 0
20 0 7 1.575 7.670337398864601 0.2128314522466327 -52.25167795927456 0 0 0
81 0 8 -1.05 8.688584917231333 5.170188574839827 -53.22141463631341 0 0 0
22 0 8 -1.05 8.657388606361124 3.196934262699938 -51.10121171551441 0 0 0
91 0 7 1.575 11.782876741548684 4.4745071913911865 -52.186075050580676 0 0 0
23 0 7 1.575 8.723244074871792 3.2540793018672294 -53.13560318892331 0 0 0
27 0 7 1.575 10.897711870743066 1.214582348555209 -53.06422035222227 0 0 0
26 0 8 -1.05 10.744017624420835 3.160807805208785 -53.10072698802344 0 0 0
90 0 8 -1.05 11.003653262822372 7.739538911425743 -53.075683612119676 0 0 0
24 0 8 -1.05 8.938036591015226 1.2664626913782748 -53.21394587007852 0 0 0
82 0 6 1.05 8.82419872532739 5.684355499853819 -51.32487913741074 0 0 0
89 0 6 1.05 10.833999441027839 7.620359726942145 -51.068608444447726 0 0 0
85 0 8 -1.05 8.754998098295395 7.708732075394924 -50.87733264297248 0 0 0
86 0 8 -1.05 10.813588965188735 5.503667637694455 -50.83379085622278 0 0 0
28 0 8 -1.05 10.90932445903793 1.187537914155135 -51.039928720534924 0 0 0
98 0 7 1.575 15.04408386712878 5.40071317723543 -53.101741764302936 0 0 0
94 0 7 1.575 12.957222742630968 7.573769496613788 -53.07436469487057 0 0 0
95 0 8 -1.05 13.092967501557174 5.567698316949446 -53.03782867879873 0 0 0
93 0 8 -1.05 12.935567503688796 7.674913963881646 -51.040352011356646 0 0 0
39 0 8 -1.05 15.203127868668542 3.3571635866611707 -53.09047913825785 0 0 0
99 0 8 -1.05 15.230135102955082 5.526930784331154 -50.97104922837988 0 0 0
97 0 8 -1.05 14.938962288600429 7.40410299629754 -53.13981461948866 0 0 0
31 0 6 1.05 12.931103837459501 1.342018476977391 -51.028285031532285 0 0 0
38 0 6 1.05 15.036945385614095 3.446492108638155 -51.067712637769844 0 0 0
35 0 8 -1.05 14.951050858512895 1.3873551295761575 -51.04044538287297 0 0 0
34 0 8 -1.05 12.898256149388484 3.420057302831003 -50.913081250614034 0 0 0
30 0 8 -1.05 12.928341212910377 1.1148439581832945 -53.0949780992815 0 0 0
40 0 7 1.575 15.242370920533869 1.3354322368123086 -52.99505593762497 0 0 0
60 0 7 1.575 24.522685826091553 25.31387536148138 -52.0209980168034 0 -1 0
50 0 8 -1.05 21.584227905442415 0.9015680787453004 -52.750438533605184 0 0 0
48 0 8 -1.05 19.410713742698785 1.231782034979764 -50.95466832710563 0 0 0
106 0 8 -1.05 19.34253747050865 5.682274863119547 -51.02684141020251 0 0 0
54 0 8 -1.05 21.575797514650546 3.079460883023872 -50.88382889572029 0 0 0
105 0 8 -1.05 17.406664008589978 7.610148049808313 -51.130259141884466 0 0 0
55 0 8 -1.05 23.519596388832962 1.1757916754250628 -50.8913583791357 0 0 0
109 0 7 1.575 19.43878345815406 7.63036514031451 -51.403230473116274 0 0 0
58 0 7 1.575 23.329084331699168 2.9663398522298325 -51.79181664616794 0 0 0
102 0 7 1.575 17.273750816154443 5.604727572658928 -51.173879738178286 0 0 0
51 0 7 1.575 21.386854965941033 1.1145877524034615 -50.825921516964314 0 0 0
117 0 8 -1.05 23.361953984342257 7.564444085800345 -53.2506010042375 0 0 0
119 0 8 -1.05 24.600577769656052 5.667032896792089 -49.468771433725834 0 0 0
59 0 8 -1.05 23.619414868543164 3.510049999496536 -53.588392583191755 0 0 0
113 0 8 -1.05 21.293000849118297 7.693196535466392 -50.62574347011896 0 0 0
44 0 8 -1.05 17.145054181380846 1.3710853320263823 -53.484880925510616 0 0 0
110 0 8 -1.05 19.768245746104167 7.8623173469185 -53.27865527988816 0 0 0
115 0 8 -1.05 22.489502876945902 5.325771148977708 -51.731602319539256 0 0 0
46 0 8 -1.05 19.457215544185125 3.414261677974624 -52.9156366661369 0 0 0
47 0 6 1.05 19.50323124823279 1.4100627374165413 -53.17069460216166 0 0 0
114 0 6 1.05 21.65484493751588 8.218903905304686 -53.985060856763575 0 0 0
43 0 6 1.05 17.40620945247232 3.420659073426503 -53.176834391098545 0 0 0
118 0 6 1.05 23.569875222415977 5.5833141311207575 -53.534640784583544 0 0 0
111 0 7 1.575 20.652809231281022 4.509944255667407 -51.91675271999874 0 0 0
42 0 8 -1.05 17.146017005872604 3.660676850234143 -50.95011164843196 0 0 0
101 0 8 -1.05 16.98874482819596 5.4185133343011955 -53.07769647275692 0 0 0
140 0 7 1.575 7.65745173615828 8.771617507201372 -52.14827450301725 0 0 0
128 0 8 -1.05 2.4196087516835503 9.584100290697622 -50.71343183713373 0 0 0
130 0 8 -1.05 4.388018453314683 9.560948522679238 -52.833664932537815 0 0 0
123 0 7 1.575 0.3104897469213883 11.840132520506696 -53.05497179020306 0 0 0
127 0 6 1.05 2.405397804115876 9.685843746427656 -53.23227754054173 0 0 0
126 0 8 -1.05 2.255381550904607 11.738743448062376 -52.958834218484235 0 0 0
124 0 8 -1.05 0.36255788085580526 9.87753915981039 -53.148846838903246 0 0 0
139 0 8 -1.05 6.888088543413419 12.134796829284564 -53.15483885191689 0 0 0
131 0 7 1.575 4.460835071125662 9.811673454760577 -50.956630144914485 0 0 0
138 0 6 1.05 6.537169366037448 11.822587634330288 -51.18164858173859 0 0 0
135 0 8 -1.05 6.485161326838441 9.769291300301793 -50.90076060686748 0 0 0
134 0 8 -1.05 4.44992156348338 11.847722304800808 -50.85389736589845 0 0 0
122 0 8 -1.05 0.15812970286139122 11.970845501871455 -50.982845537029526 0 0 0
191 0 7 1.575 3.467006102103966 12.980294024133913 -52.22029794236538 0 0 0
198 0 7 1.575 6.617604181261762 14.059642265997391 -53.06533580744603 0 0 0
194 0 6 1.05 4.543684994496781 16.21444344453095 -53.26606984604862 0 0 0
195 0 8 -1.05 4.686486473775265 14.149265188553374 -53.08622419483906 0 0 0
190 0 8 -1.05 2.4754891440945976 16.39322052086473 -53.10461167371084 0 0 0
193 0 8 -1.05 4.34414508758159 16.236932914872025 -50.890180381193446 0 0 0
199 0 8 -1.05 6.6232535183094345 13.9497893387638 -51.021990964644175 0 0 0
197 0 8 -1.05 6.669465687621267 16.00661588972033 -53.146622034613884 0 0 0
182 0 6 1.05 0.2947244170072145 14.041679666023624 -51.178613831538186 0 0 0
189 0 7 1.575 2.3812885683190013 16.120829498321033 -51.20900707598318 0 0 0
185 0 8 -1.05 0.3503632973606868 16.164307006479532 -50.91646596707113 0 0 0
186 0 8 -1.05 2.399729721439453 14.14596025824323 -51.03427570648973 0 0 0
181 0 8 -1.05 0.13925269554736927 13.80368590757387 -53.15901923689694 0 0 0
142 0 8 -1.05 8.690794793897028 11.885932286262976 -51.01707709469552 0 0 0
148 0 8 -1.05 10.963666648651728 9.730379010568857 -51.04148093885827 0 0 0
143 0 7 1.575 8.804168954770724 11.87330058429116 -53.045743598429766 0 0 0
147 0 7 1.575 10.863586195328132 9.71172442636863 -53.070243017727016 0 0 0
146 0 8 -1.05 10.784310658098445 11.760777194295539 -53.139902731714045 0 0 0
144 0 8 -1.05 8.90309426996222 9.912441767390408 -53.04798458160496 0 0 0
201 0 8 -1.05 8.7569258198202 13.926435949661263 -53.01961298435899 0 0 0
211 0 7 1.575 12.155536979180718 12.839811883006172 -52.3595875739654 0 0 0
210 0 8 -1.05 11.29469269140045 16.38263119436671 -53.30162264941938 0 0 0
202 0 6 1.05 8.607235756173699 13.899722778255942 -50.931536260109404 0 0 0
209 0 7 1.575 10.03189866167099 15.25708154551095 -52.52333291684761 0 0 0
205 0 8 -1.05 8.83895101698784 16.069625099013415 -51.19341556192188 0 0 0
206 0 8 -1.05 10.908893081769298 14.045547931780598 -51.199123793322705 0 0 0
160 0 7 1.575 16.163663618029997 8.650253936767625 -52.37668785842029 0 0 0
150 0 8 -1.05 12.821810015137563 9.548825902799228 -53.17046399605504 0 0 0
159 0 8 -1.05 15.24225935519495 11.862625306032974 -53.10279452362563 0 0 0
151 0 6 1.05 13.052596860060104 9.736238369695377 -51.17070401567661 0 0 0
158 0 7 1.575 15.158637909843376 11.740560976550615 -51.17760778125866 0 0 0
155 0 8 -1.05 15.179449944652378 9.7265452761022 -51.05857812324694 0 0 0
154 0 8 -1.05 13.116775463014767 11.849748966834746 -50.98938818615196 0 0 0
218 0 6 1.05 15.149466448428308 13.964002573143237 -53.257020225560055 0 0 0
214 0 7 1.575 13.222340344385175 16.304975022144408 -53.037114559337674 0 0 0
215 0 8 -1.05 13.173258134685405 14.324233793522426 -53.0276966107904 0 0 0
213 0 8 -1.05 13.2313979073703 16.335858772719245 -50.95513059960961 0 0 0
219 0 8 -1.05 15.310712761925748 13.724386803328512 -51.082022627897594 0 0 0
217 0 8 -1.05 15.188806493527606 16.411159440244354 -52.838919734813466 0 0 0
174 0 8 -1.05 21.4057936112094 11.941835139520316 -50.92076422583735 0 0 0
175 0 8 -1.05 23.57205078857404 9.738364801023858 -50.9351738848228 0 0 0
178 0 6 1.05 23.518039289436942 11.91808891064256 -51.17562562896746 0 0 0
171 0 6 1.05 21.543929586719308 9.905285207144805 -51.29814063034014 0 0 0
179 0 8 -1.05 23.782288820770926 11.975928885629655 -53.15079621143751 0 0 0
164 0 8 -1.05 17.395390733249794 9.799551136241632 -53.28095095000794 0 0 0
166 0 8 -1.05 19.143327418727882 11.758841323971593 -53.165968280811256 0 0 0
167 0 7 1.575 19.35857636649665 9.827648463882737 -53.21516366638955 0 0 0
163 0 7 1.575 17.190802872672407 11.793816059900204 -53.25717045686552 0 0 0
170 0 8 -1.05 21.280013562980702 9.994853215907034 -53.26350344774318 0 0 0
168 0 8 -1.05 19.392327706204068 9.605370738774452 -51.15433608598265 0 0 0
162 0 8 -1.05 17.18433582150366 11.791682709434891 -51.11308708453104 0 0 0
180 0 7 1.575 24.572021652160238 8.726736943719875 -52.3169236534437 0 0 0
226 0 8 -1.05 19.34858584645439 14.059098545745634 -51.11618485909844 0 0 0
225 0 8 -1.05 17.29378968732139 15.998790670582784 -50.80167736539521 0 0 0
229 0 7 1.575 19.288191001738152 16.084621734508517 -51.09455641866727 0 0 0
222 0 6 1.05 17.323666962153 14.044974662386954 -51.50243777885116 0 0 0
237 0 8 -1.05 23.571313640860254 15.88866611889438 -53.29132335950077 0 0 0
239 0 8 -1.05 23.615745705756087 14.018151922436019 -51.0909187509104 0 0 0
233 0 8 -1.05 21.26928096993536 16.16981897367944 -51.12196468595672 0 0 0
230 0 8 -1.05 18.753259444944177 16.34308460239588 -52.95817446230795 0 0 0
235 0 8 -1.05 21.64126565162855 14.01007686143189 -53.25447044147972 0 0 0
234 0 6 1.05 21.570001359174924 16.00866350717341 -53.315400148559775 0 0 0
238 0 7 1.575 23.610478210947267 13.9357070279562 -53.18275362162204 0 0 0
231 0 7 1.575 20.417138434477824 12.90590743589227 -52.332335263362985 0 0 0
221 0 8 -1.05 17.104436293863582 13.715136762394366 -53.44415586547374 0 0 0
260 0 7 1.575 7.66249942780988 17.34771264622553 -52.25658357731721 0 0 0
248 0 8 -1.05 2.379488628868276 18.17523180395 -51.03524870423927 0 0 0
250 0 8 -1.05 4.309523305258184 18.29164915418109 -53.100152916537304 0 0 0
311 0 7 1.575 3.5347146836503565 21.356048327598618 -52.320302490674365 0 0 0
318 0 6 1.05 6.6494411385432866 22.500776092079224 -53.30008921961765 0 0 0
243 0 7 1.575 0.1349806545504112 20.339713420358233 -53.149826927233875 0 0 0
314 0 7 1.575 4.519788507957513 24.542682239148984 -53.28991232740501 0 0 0
247 0 7 1.575 2.366516201236002 18.331612691812623 -53.10779284584204 0 0 0
246 0 8 -1.05 2.1164132906769484 20.326736843818264 -53.073228717267746 0 0 0
315 0 8 -1.05 4.585714156345691 22.601483621766555 -53.278808002509386 0 0 0
310 0 8 -1.05 2.4885418399957038 24.612837754667375 -53.1657368444933 0 0 0
244 0 8 -1.05 0.3735006025545473 18.393839970634488 -53.077157705996065 0 0 0
313 0 8 -1.05 4.388646164988823 24.621861400376744 -51.14747871786921 0 0 0
259 0 8 -1.05 6.995683136099439 20.52631563258348 -53.09399316637195 0 0 0
319 0 8 -1.05 6.631685482283023 22.388903958186457 -50.994736838889175 0 0 0
317 0 8 -1.05 6.476656800511396 24.518166524906416 -53.180683320058144 0 0 0
251 0 6 1.05 4.516768973632003 18.283987178609127 -51.103637296510904 0 0 0
302 0 7 1.575 0.4805692935137837 22.40745983652095 -51.13275932827819 0 0 0
258 0 7 1.575 6.584726812925942 20.39480488587647 -51.18621683615086 0 0 0
309 0 7 1.575 2.4306350378137016 24.505590151961233 -51.26393411982586 0 0 0
255 0 8 -1.05 6.679333091725563 18.369732551614945 -50.92618088240501 0 0 0
305 0 8 -1.05 0.46742413191444987 24.413480873256823 -50.967862250819024 0 0 0
254 0 8 -1.05 4.606586213812686 20.39229698965756 -51.01662550221606 0 0 0
306 0 8 -1.05 2.437934439923954 22.510591513411192 -51.02838550404259 0 0 0
301 0 8 -1.05 25.29438155284595 22.31341947670005 -52.941408397468706 -1 0 0
242 0 8 -1.05 0.1109085548022799 20.454201255827694 -51.018985135883945 0 0 0
326 0 8 -1.05 10.786292800939194 22.58359539161959 -50.94259236032157 0 0 0
325 0 8 -1.05 8.696708392952125 24.626183102562262 -50.9044372244951 0 0 0
329 0 6 1.05 10.803374465297145 24.625537641430896 -50.97684005906249 0 0 0
322 0 6 1.05 8.652088364783998 22.57618392127383 -51.12919062420235 0 0 0
264 0 8 -1.05 9.02715658125979 18.452210441675426 -53.01429063911525 0 0 0
330 0 8 -1.05 11.117082072399704 24.5622527792468 -53.05804388031404 0 0 0
266 0 8 -1.05 11.02633585729321 20.54121799996502 -53.13455772649372 0 0 0
267 0 6 1.05 11.075873156033907 18.39852190626208 -52.971800802079024 0 0 0
263 0 7 1.575 8.942190009491812 20.38376623307021 -53.06209561169019 0 0 0
321 0 8 -1.05 9.05408509183714 22.350592945069927 -53.13788672550667 0 0 0
262 0 8 -1.05 8.640439143263148 20.50349751441711 -51.039623849609704 0 0 0
268 0 8 -1.05 11.00282172779431 18.399282856420236 -50.888690676405524 0 0 0
331 0 7 1.575 11.004436720226257 22.519496976887012 -52.92516798061345 0 0 0
280 0 7 1.575 16.977507873465978 17.158649570955433 -52.5426850788533 0 0 0
274 0 8 -1.05 13.911445231965144 20.08354245613194 -50.71341113971729 0 0 0
275 0 8 -1.05 16.308901382532014 18.623481059921787 -51.15647316221976 0 0 0
278 0 7 1.575 15.76973986241862 20.535210275666817 -51.22403775504146 0 0 0
271 0 6 1.05 13.160745811794209 20.327184300450156 -52.87409671787514 0 0 0
337 0 8 -1.05 14.96494796729663 24.72345501677645 -53.38343356626506 0 0 0
339 0 8 -1.05 15.31786623231102 22.57824431038493 -51.239265939536494 0 0 0
279 0 8 -1.05 15.176412467767562 20.73469668561068 -53.10869885464621 0 0 0
333 0 8 -1.05 12.965249204058669 24.632627576311354 -51.00484861803358 0 0 0
335 0 8 -1.05 13.07331177628323 22.667403350017803 -53.15450852140655 0 0 0
334 0 7 1.575 13.067722962034438 24.63374345501941 -52.9771334205542 0 0 0
270 0 8 -1.05 13.1337915843532 18.314603097683687 -52.990249441894754 0 0 0
338 0 7 1.575 15.118248037547684 22.71074915799543 -53.23293005672789 0 0 0
346 0 8 -1.05 18.797980798207547 22.842013489602568 -50.64162796650415 0 0 0
294 0 8 -1.05 21.299850106649274 20.147755511726654 -51.007578179245655 0 0 0
345 0 8 -1.05 17.142747579966038 24.777938697015898 -51.299394382877615 0 0 0
295 0 8 -1.05 23.35345301595243 18.014226935089315 -51.1698428747725 0 0 0
349 0 7 1.575 19.06233049994519 24.746517644048563 -51.13875887667309 0 0 0
298 0 6 1.05 23.453308165860648 20.01362782859885 -51.200804096418494 0 0 0
342 0 6 1.05 17.28528185275857 24.697304584946945 -53.39341814243275 0 0 0
291 0 7 1.575 21.31013735485939 18.16423075330389 -51.45571615792159 0 0 0
357 0 8 -1.05 23.291643002004072 23.832234908437716 -51.76346601939909 0 0 0
359 0 8 -1.05 23.428271628479003 20.266813141624613 -49.076007445384086 0 0 0
299 0 8 -1.05 23.63676397363146 20.30773140188676 -53.13626770927393 0 0 0
353 0 8 -1.05 20.96070196507001 24.623560358816775 -50.55641569032006 0 0 0
284 0 8 -1.05 17.479423854785345 18.61167960579702 -53.81779373850244 0 0 0
350 0 8 -1.05 19.30414783231566 24.808721846565344 -53.065034758271224 0 0 0
355 0 8 -1.05 21.110868235198872 22.390494333756624 -52.6399705087474 0 0 0
286 0 8 -1.05 17.951061649065647 20.59614771876493 -51.678958798148535 0 0 0
287 0 6 1.05 19.26128570720791 17.821776796834214 -54.18660177060439 0 0 0
354 0 6 1.05 21.2462405310613 24.363098924048728 -52.9026558426644 0 0 0
283 0 6 1.05 17.149773149372287 20.586885077773466 -53.68901378449022 0 0 0
358 0 6 1.05 23.12791433462947 22.21198503578658 -53.14923258559575 0 0 0
351 0 7 1.575 19.773718784463096 21.379691464386077 -51.68361603160385 0 0 0
290 0 8 -1.05 21.036958370411874 17.946455249459596 -53.344357747889326 0 0 0
288 0 8 -1.05 19.380287199862046 18.090352149775814 -50.88549859276907 0 0 0
282 0 8 -1.05 16.3190319623172 21.01828063973134 -49.30767416108888 0 0 0
341 0 8 -1.05 16.959101968541763 22.679359836538314 -53.771918593585625 0 0 0
300 0 7 1.575 24.685502307546468 17.054297605036368 -52.319745884102645 0 0 0
5 0 7 1.575 1.0619098234854754 2.2846928826071062 -51.29462500244419 0 0 0
416 0 7 1.575 7.603803456596405 4.410598875240016 -47.946708852869314 0 0 0
76 0 7 1.575 5.569351499640028 6.453440383954729 -50.278067372949806 0 0 0
368 0 6 1.05 2.334203692978614 3.409133244341777 -46.78476466020673 0 0 0
415 0 6 1.05 6.613602756131947 7.579366633961936 -46.83760438995359 0 0 0
68 0 6 1.05 2.497305377119331 5.358968197211393 -48.91405447307404 0 0 0
63 0 6 1.05 0.01229782452902571 7.728473651606284 -49.01913545772415 0 0 0
12 0 7 1.575 4.530146439172275 3.3150029351547317 -48.93780236448837 0 0 0
17 0 6 1.05 6.599982208345005 1.1407131612075607 -49.020545600611506 0 0 0
361 0 7 1.575 0.18641328318175976 1.2988959455538804 -46.77498387715263 0 0 0
408 0 7 1.575 4.550874235617776 5.399386382385408 -46.81085462624647 0 0 0
371 0 8 -1.05 4.3957354549755 3.3445631749184934 -46.81633763380276 0 0 0
411 0 8 -1.05 4.450104219614426 7.466045913933403 -46.781625448092846 0 0 0
64 0 8 -1.05 0.13081849777211554 7.7767528658761975 -46.79081616916228 0 0 0
80 0 8 -1.05 6.6877649546820805 7.584150350179256 -48.86628906113268 0 0 0
72 0 8 -1.05 4.534363800795512 5.305019973013935 -48.80286827375903 0 0 0
365 0 8 -1.05 2.402656987312414 1.2603601739847967 -46.65195788374793 0 0 0
16 0 8 -1.05 6.495423560467614 3.1663574845565585 -48.90803562196476 0 0 0
406 0 8 -1.05 2.49832592583139 5.41301479794391 -46.788009714859 0 0 0
412 0 8 -1.05 6.524237536639313 5.4608432841622 -46.70460679207231 0 0 0
67 0 8 -1.05 2.0149663736105565 7.351176364928029 -48.85481350862786 0 0 0
13 0 8 -1.05 4.435132889238978 1.3148669604994578 -48.595517938445475 0 0 0
364 0 8 -1.05 0.28989311365622983 3.325634795028723 -46.81066576728432 0 0 0
9 0 8 -1.05 2.512540289467141 3.2003328988280257 -48.81861509501471 0 0 0
373 0 8 -1.05 6.531209296608007 1.0085074695277543 -46.52443566404985 0 0 0
404 0 8 -1.05 0.2964481115120593 9.809497829191299 -44.72423754031035 0 0 0
1 0 8 -1.05 0.39855947001388803 1.1653559216673401 -48.71093696608008 0 0 0
372 0 7 1.575 4.591286686277029 1.3476133707109454 -46.6526586058944 0 0 0
405 0 7 1.575 1.388481166903446 6.677049963395527 -45.86916657358723 0 0 0
369 0 7 1.575 2.4462982582422703 1.1145535856238966 -48.82114398113207 0 0 0
663 0 7 1.575 3.4880755030523 4.446585162851288 -43.631767733113996 0 0 0
414 0 6 1.05 6.619093107243932 5.394465260308941 -44.68124095375085 0 0 0
362 0 6 1.05 0.2936219052652684 3.4577254465732503 -44.815435847558184 0 0 0
409 0 7 1.575 4.50188742802755 7.630509719267711 -44.80422446457105 0 0 0
367 0 7 1.575 2.3824662825400997 1.2528515158733293 -44.65930794331607 0 0 0
366 0 8 -1.05 2.320463734076604 3.232119100047977 -44.535535363686655 0 0 0
410 0 8 -1.05 4.512066013322776 5.602893209453427 -44.73584072459888 0 0 0
407 0 8 -1.05 2.4637012089913024 7.620913179632486 -44.53884691865969 0 0 0
363 0 8 -1.05 0.39451789607238424 1.319946879789812 -44.705342358188865 0 0 0
374 0 8 -1.05 6.817966114009323 3.2322564717200444 -44.43875771894679 0 0 0
413 0 8 -1.05 6.474640084033154 7.5289044035260035 -44.58564027537007 0 0 0
370 0 8 -1.05 4.467662471525265 1.1773601193663246 -44.5877094078267 0 0 0
403 0 8 -1.05 0.23836570844748425 5.539471055830397 -44.72108037392909 0 0 0
626 0 7 1.575 6.834013285568755 1.2314560191417183 -44.59366111912293 0 0 0
418 0 8 -1.05 8.712485681113321 7.758789347060193 -46.75851618542393 0 0 0
21 0 8 -1.05 8.713723800137895 1.1086981493366412 -48.8087607485333 0 0 0
25 0 7 1.575 9.79476674920307 2.2688767059175743 -49.93111941543884 0 0 0
382 0 6 1.05 10.841077705187546 3.343998417868167 -46.797084454837375 0 0 0
88 0 7 1.575 10.856023897954124 5.486838025854167 -48.88108579885409 0 0 0
83 0 7 1.575 8.686514620900443 7.598695648984183 -48.93619023192087 0 0 0
375 0 6 1.05 8.76703757430576 1.2604461039337524 -46.81284209541582 0 0 0
84 0 8 -1.05 8.89918853275516 5.62891377343186 -48.63841019752098 0 0 0
379 0 8 -1.05 10.861795657695055 1.2344748870322804 -46.64264389332063 0 0 0
420 0 8 -1.05 10.978977932720825 5.436571822472978 -46.773349745680704 0 0 0
87 0 8 -1.05 10.769918246944162 7.511957625778902 -48.79844693821333 0 0 0
378 0 8 -1.05 8.723857436821884 3.3696414822781295 -46.694003394128615 0 0 0
29 0 8 -1.05 10.916717026366989 3.4178134342234254 -48.83735991316008 0 0 0
419 0 7 1.575 9.781473730643606 6.529645137162166 -45.778516499752975 0 0 0
383 0 7 1.575 11.893433993831222 0.14021134693771767 -47.857438996590275 0 0 0
417 0 8 -1.05 8.777682754855011 5.393505333776202 -44.522859373142445 0 0 0
677 0 7 1.575 11.85271919281644 4.443984312312525 -43.68090909229221 0 0 0
376 0 7 1.575 8.767696758218108 3.397037753422353 -44.740303550405976 0 0 0
381 0 7 1.575 10.87407195287236 1.1783091186281776 -44.63991270638542 0 0 0
380 0 8 -1.05 10.741328953995694 3.2369575900013743 -44.64563205593658 0 0 0
421 0 8 -1.05 10.927203823964682 7.699376733330589 -44.6284115284631 0 0 0
377 0 8 -1.05 8.785001973317783 1.3876308759941758 -44.70737557069562 0 0 0
430 0 7 1.575 16.051254783532208 4.464264210088721 -48.181366460961996 0 0 0
96 0 7 1.575 14.02163986424942 6.593603074809467 -49.95400147383459 0 0 0
429 0 7 1.575 15.120092802074952 7.651568272624152 -46.749891145956916 0 0 0
32 0 7 1.575 12.904899856731127 3.3529877926647833 -48.95833185385152 0 0 0
37 0 7 1.575 15.217605198417907 1.2087521604845066 -49.11287586351905 0 0 0
422 0 6 1.05 13.007042460599193 5.45667986394843 -46.80919478246516 0 0 0
385 0 8 -1.05 12.940250180450432 3.379456011342251 -46.90429278449342 0 0 0
425 0 8 -1.05 13.093135954736534 7.626726338114132 -46.63507733728012 0 0 0
100 0 8 -1.05 15.127072209647656 7.621399280940835 -48.705095113362844 0 0 0
92 0 8 -1.05 12.940105680316522 5.411850378755777 -48.83682073503793 0 0 0
36 0 8 -1.05 14.877659518008747 3.2207862745195834 -48.932400241828624 0 0 0
426 0 8 -1.05 15.176346030707412 5.586872600274373 -46.6951493682362 0 0 0
33 0 8 -1.05 13.084281336477563 1.2779652244450197 -48.838785745144364 0 0 0
387 0 8 -1.05 15.25070897430274 0.8971726000454872 -47.048204801151684 0 0 0
386 0 7 1.575 14.019519944386202 2.026099218220374 -46.11323810159699 0 0 0
428 0 6 1.05 17.419049901078836 5.752989055379247 -46.52833041688827 0 0 0
423 0 7 1.575 12.966070151430566 7.600639079771614 -44.653366461827474 0 0 0
424 0 8 -1.05 13.074803373175449 5.58297565970389 -44.63424090694775 0 0 0
388 0 8 -1.05 14.97338565133259 3.175253415142621 -44.84261814930418 0 0 0
427 0 8 -1.05 15.012937952083401 7.499876458982753 -44.659541189588595 0 0 0
384 0 8 -1.05 12.989140823321081 1.0507497433103643 -44.7568373905903 0 0 0
640 0 7 1.575 16.506138102216983 25.00970318824434 -44.08431728536797 0 -1 0
397 0 7 1.575 20.3175993358981 0.040186231945192746 -47.7875924834069 0 0 0
433 0 7 1.575 19.280200285324923 7.807518261317859 -46.59952131408308 0 0 0
400 0 7 1.575 22.598691020000285 2.524220794327701 -46.18323313254309 0 0 0
401 0 8 -1.05 23.695478641907904 0.992424688378946 -46.607745728839504 0 0 0
49 0 8 -1.05 19.38200956911175 3.541115634480993 -48.84937833621288 0 0 0
392 0 8 -1.05 17.29747235519218 3.7113009624121847 -46.91010122304768 0 0 0
53 0 8 -1.05 21.439896964485808 1.2298385257337017 -48.78675804299453 0 0 0
107 0 8 -1.05 19.3246401188001 7.701526526558058 -48.598393156119045 0 0 0
440 0 8 -1.05 23.5056407843103 5.627111290573253 -46.70076452872032 0 0 0
434 0 8 -1.05 19.415775724467203 5.749291753196473 -46.710567847754994 0 0 0
56 0 8 -1.05 23.305677647756468 3.129948687650692 -48.116284409976934 0 0 0
393 0 8 -1.05 19.20430600108784 1.3124963726993837 -46.74850414310311 0 0 0
112 0 8 -1.05 21.50631716112543 5.664373545635071 -48.77867337511172 0 0 0
120 0 8 -1.05 23.2730313619332 7.913679217439279 -48.79360073146943 0 0 0
104 0 8 -1.05 17.292171955757436 5.7222632460623855 -48.90282053517214 0 0 0
439 0 8 -1.05 21.36135227391354 7.640774422804088 -46.75065481124795 0 0 0
399 0 8 -1.05 21.134624331007736 3.689238997010588 -46.71456750368192 0 0 0
436 0 7 1.575 21.447204538757596 5.6168348954241605 -46.80614068598907 0 0 0
389 0 6 1.05 17.496676065583383 0.2845844269586191 -47.446395865351576 0 0 0
57 0 6 1.05 23.593493488236255 1.220859438264476 -48.85132281034662 0 0 0
52 0 6 1.05 21.433736193064863 3.3774110120359015 -48.87813185092453 0 0 0
103 0 6 1.05 17.251699372703282 7.787556003007012 -49.088836057954936 0 0 0
108 0 6 1.05 19.368036008484435 5.610415133156092 -48.98432336367026 0 0 0
443 0 6 1.05 23.53115133940845 7.761336095360347 -46.74728085157364 0 0 0
396 0 7 1.575 19.21351127154141 3.322183385902375 -46.91780676249358 0 0 0
116 0 7 1.575 22.77697099402424 6.427820269436402 -50.15180866239765 0 0 0
444 0 7 1.575 24.580580892672756 4.508146426322595 -47.92853592490471 0 0 0
45 0 7 1.575 18.301459698295677 2.468771567461473 -50.07157253070996 0 0 0
41 0 8 -1.05 17.127010625791005 1.4894434075495164 -48.95435373171086 0 0 0
432 0 8 -1.05 17.203803725490612 7.776015161679909 -46.68265358265675 0 0 0
654 0 7 1.575 24.693162608041284 0.02916380853976422 -43.78097964772337 0 0 0
398 0 8 -1.05 21.366268697693467 1.611492783616735 -44.94550637734181 0 0 0
441 0 8 -1.05 23.590404172238667 7.574809881753913 -44.54187443728919 0 0 0
402 0 8 -1.05 23.668967716389705 3.5495975159137023 -44.71142881986037 0 0 0
391 0 8 -1.05 17.454624118896934 1.31643916420471 -43.99333906836413 0 0 0
435 0 8 -1.05 19.47788195518947 7.855040796313271 -44.58333054246374 0 0 0
438 0 8 -1.05 21.649841513358123 5.627348253345923 -44.753650866836274 0 0 0
394 0 8 -1.05 19.136478612127767 3.2971497995533836 -44.81620261982644 0 0 0
395 0 7 1.575 19.373356866071642 1.3123547147111345 -44.80994103249822 0 0 0
437 0 6 1.05 21.532002009248632 7.736986515102234 -44.66275011124223 0 0 0
390 0 6 1.05 17.022450843656642 3.123414550576354 -44.98817553648508 0 0 0
442 0 7 1.575 23.658864090570283 5.595486317015179 -44.74407447652527 0 0 0
691 0 7 1.575 20.402072836167374 4.433494326170948 -43.89693392597739 0 0 0
431 0 8 -1.05 16.927463476008327 5.203078216394123 -44.65436108723177 0 0 0
453 0 7 1.575 3.6370532238691307 8.35155531437473 -48.384009472356695 0 0 0
457 0 8 -1.05 6.769803833870503 9.694688622124039 -46.65076988076033 0 0 0
125 0 7 1.575 1.320626735135921 10.913081799444779 -49.94373520488814 0 0 0
452 0 7 1.575 2.3752549511869163 11.871334855445415 -46.83890583898553 0 0 0
132 0 7 1.575 4.534567688015297 11.976104695942352 -48.88814816765063 0 0 0
137 0 6 1.05 6.630802092150107 9.768989289401786 -48.878658475058714 0 0 0
445 0 7 1.575 0.25799673947288065 9.77357487623925 -46.80698882738568 0 0 0
455 0 8 -1.05 4.350764383297533 11.97926350757495 -46.70714264112346 0 0 0
449 0 8 -1.05 2.235330274779861 9.906111604660607 -46.70307774183487 0 0 0
136 0 8 -1.05 6.521487019206489 11.90514730068292 -48.72652336433086 0 0 0
133 0 8 -1.05 4.542009580905964 10.00173258035688 -48.78699396524443 0 0 0
448 0 8 -1.05 0.3515587112546395 11.864507028044136 -46.744695845082155 0 0 0
129 0 8 -1.05 2.4494240195279016 12.001940702021795 -48.761211953721286 0 0 0
121 0 8 -1.05 0.11311906976775446 9.839212042227151 -48.784025028673064 0 0 0
456 0 7 1.575 5.5394748669833245 10.83404322818173 -45.73380412203746 0 0 0
710 0 7 1.575 7.682177277345662 8.677720549738353 -43.63979418220273 0 0 0
454 0 8 -1.05 4.4990042808115565 9.610551136531928 -44.617772596871475 0 0 0
446 0 6 1.05 0.20033139319758445 11.849657577332106 -44.72408401430164 0 0 0