LAMMPS data file via write_data, version 17 Feb 2022, timestep = 391

4356 atoms
10 atom types
72 bonds
6 bond types
108 angles
6 angle types
0 dihedrals
2 dihedral types
18 impropers
2 improper types

0 25.44 xlo xhi
0 25.44 ylo yhi
-64.778423 32.908 zlo zhi

Masses

1 12.011
2 1.008
3 15.9994
4 15.9994
5 1.008
6 55.845
7 55.845
8 15.9994
9 15.9994
10 1.008

Pair Coeffs # lj/cut/coul/long

1 0.0988 3.31521
2 0.0161 2.4473
3 0.1463 3.04812
4 0.093 3.24287
5 0.0047 0.537925
6 9.0298e-07 4.9062
7 9.0298e-07 4.9062
8 0.1554 3.16554
9 0.1554 3.16554
10 0 0

Bond Coeffs # harmonic

1 361.8 1.105
2 652.57 1.218
3 383.13 1.351
4 563.51 0.973
5 554.135 1
6 0 2.08

Angle Coeffs # harmonic

1 51.617 106.55
2 65.93 123.65
3 65.262 109.49
4 115.745 122.1
5 118.817 130.25
6 30 109.47

Dihedral Coeffs # fourier

1 1 2.3 2 180
2 2 2.3 2 180 1.9 1 0

Improper Coeffs # cvff

1 10.5 -1 2
2 10.5 -1 2

Atoms # full

71 0 7 1.575 3.2575755583654304 4.502473160983274 -52.03136494656522 0 0 0
78 0 6 1.05 7.0785549618390435 5.658600538520761 -53.882623912388745 0 0 0
3 0 6 1.05 0.08010725350220087 3.4243018848735245 -53.23908804109221 0 0 0
74 0 6 1.05 4.4886749901476835 7.496542748578861 -53.122289125260814 0 0 0
7 0 6 1.05 2.147923940494806 1.3526447857523485 -53.17765921147285 0 0 0
6 0 8 -1.05 2.0534939033257005 3.329609059201841 -52.93117358730685 0 0 0
75 0 8 -1.05 4.70022251573516 5.7690189663458895 -51.91376154182823 0 0 0
70 0 8 -1.05 2.469261987980967 7.4785184243183 -52.831723555038536 0 0 0
4 0 8 -1.05 0.02602306142585092 1.1295294403022467 -52.97910329338901 0 0 0
73 0 8 -1.05 4.091660118976919 7.772318168241981 -50.17349102378273 0 0 0
19 0 8 -1.05 6.847083362553706 3.6857228919732163 -53.33789746274735 0 0 0
79 0 8 -1.05 6.6548800957216825 4.848050887574476 -50.12757889630335 0 0 0
77 0 8 -1.05 6.507209516918302 7.42014080314017 -53.21251448664917 0 0 0
5 0 7 1.575 0.060538066953033216 1.5496427399159967 -50.92872853407982 0 0 0
76 0 7 1.575 5.43517153451307 6.370362333484313 -50.15288462525724 0 0 0
11 0 6 1.05 4.515169245111661 1.2557979201676603 -51.512869802583246 0 0 0
68 0 6 1.05 2.2607122419904875 5.367791896838507 -48.844565339364465 0 0 0
63 0 6 1.05 25.274146413152106 7.661728207741576 -48.965954532935406 -1 0 0
62 0 7 1.575 0.12066151022586369 5.460588643062476 -51.16068009403935 0 0 0
12 0 7 1.575 4.3177771133401155 3.370375154165472 -49.115399887004436 0 0 0
17 0 6 1.05 6.714055211103644 1.2113577084907816 -49.33645119256778 0 0 0
18 0 7 1.575 6.495780917524179 3.401369862913362 -51.48549760388504 0 0 0
69 0 7 1.575 2.145308670609708 7.560009459584591 -50.9538074415148 0 0 0
15 0 8 -1.05 6.553516543380075 1.4007520742369202 -51.29052890956012 0 0 0
64 0 8 -1.05 25.37071435574904 7.781353474412731 -46.729654391832966 -1 0 0
65 0 8 -1.05 0.07209768566390386 7.508621053600441 -51.02677828230753 0 0 0
16 0 8 -1.05 6.139620443697286 2.9103818180090184 -48.35097214750528 0 0 0
14 0 8 -1.05 4.494361337412564 3.22501889724343 -51.020286382355124 0 0 0
67 0 8 -1.05 1.843837461550579 7.3742836067016135 -48.798603052735274 0 0 0
13 0 8 -1.05 4.146744110900782 1.3559732126397335 -48.70536031517431 0 0 0
66 0 8 -1.05 2.030200056377627 5.495860746062776 -50.827219987795324 0 0 0
8 0 8 -1.05 2.023476550979305 1.0643529464762573 -50.87395859061646 0 0 0
10 0 8 -1.05 4.071057285353297 0.9863176505235873 -53.40855217961366 0 0 0
61 0 8 -1.05 25.208175133949318 5.371595370062984 -53.022923739971084 -1 0 0
2 0 8 -1.05 25.140669443670276 3.492053874506539 -51.05106249582566 -1 0 0
20 0 7 1.575 7.69204188066144 0.15508142013568946 -52.4438593272553 0 0 0
81 0 8 -1.05 8.886276993296667 5.284586308899123 -53.17837530374871 0 0 0
22 0 8 -1.05 8.558029375345725 3.3330231177066496 -51.19527727033475 0 0 0
91 0 7 1.575 11.881896209033735 4.4699744650807265 -52.21080997787442 0 0 0
23 0 7 1.575 8.830775044642335 3.3510436445913583 -53.224797994223195 0 0 0
27 0 7 1.575 10.92732664233756 1.2443797380055477 -53.16535817205851 0 0 0
26 0 8 -1.05 10.790964729507111 3.1961440978633133 -53.11722788168115 0 0 0
90 0 8 -1.05 10.921026351968678 7.778479300120227 -53.15324955650453 0 0 0
24 0 8 -1.05 8.91363961013878 1.373993479011245 -53.27755462064735 0 0 0
25 0 7 1.575 9.79162940194921 2.3369973949217737 -50.124249728692035 0 0 0
88 0 7 1.575 10.80429223290975 5.471434763966939 -48.91197754296155 0 0 0
83 0 7 1.575 8.591991014419362 7.562136774369691 -48.96402897063604 0 0 0
82 0 6 1.05 8.766840193865539 5.501386689630168 -51.199827846329455 0 0 0
89 0 6 1.05 10.700775150635353 7.550772491971372 -51.167307473456404 0 0 0
84 0 8 -1.05 8.832274722834923 5.576396466195992 -48.73575401426763 0 0 0
85 0 8 -1.05 8.563403039881345 7.554384771551483 -50.916218985868646 0 0 0
87 0 8 -1.05 10.633127099118658 7.490800254599572 -48.82667762194431 0 0 0
86 0 8 -1.05 10.80649801809998 5.454989460775611 -50.87179656634379 0 0 0
28 0 8 -1.05 10.906330940183794 1.1786692855273122 -51.13061005154976 0 0 0
98 0 7 1.575 15.034848152260835 5.567238287042797 -53.10611798800495 0 0 0
94 0 7 1.575 12.875067436038249 7.645916538166492 -53.090876203925525 0 0 0
95 0 8 -1.05 13.066597497217671 5.659696964577418 -53.104410972919695 0 0 0
93 0 8 -1.05 12.83875234730098 7.665440694035883 -51.04834170762893 0 0 0
39 0 8 -1.05 15.3241420700511 3.6348060926261927 -53.205115008138534 0 0 0
99 0 8 -1.05 15.15118756910811 5.515833109149221 -51.0408818960524 0 0 0
97 0 8 -1.05 14.857933855726214 7.542473748370495 -53.13906839083357 0 0 0
96 0 7 1.575 13.9357431834592 6.545496834813497 -49.980471559537655 0 0 0
31 0 6 1.05 13.020441763548648 1.3351562921997793 -51.16850273246518 0 0 0
32 0 7 1.575 12.93808039957741 3.38309377620495 -48.97950706721608 0 0 0
37 0 7 1.575 15.071617852157763 1.2427624784516098 -48.956310532018136 0 0 0
38 0 6 1.05 15.137628076935634 3.366340271590776 -51.20971962656602 0 0 0
35 0 8 -1.05 15.222677872315069 1.257738907984594 -50.906373073236885 0 0 0
36 0 8 -1.05 14.961261946174297 3.2429352574616392 -48.85894395966982 0 0 0
34 0 8 -1.05 13.000042123605992 3.4180082382407337 -50.93894631279067 0 0 0
33 0 8 -1.05 13.053611263884381 1.3485302261455832 -48.938017997431636 0 0 0
30 0 8 -1.05 12.917637976630548 1.1356972502797391 -53.17789694008509 0 0 0
40 0 7 1.575 16.192420558582974 0.5246806253120001 -52.42693962778331 0 0 0
60 0 7 1.575 0.1413719397525906 24.440343407272774 -53.06870405730433 1 -1 0
50 0 8 -1.05 21.596094513369085 1.0033584990583053 -53.818193855033705 0 0 0
48 0 8 -1.05 19.164960818190576 1.0133511603178782 -50.464609672465365 0 0 0
106 0 8 -1.05 19.216450275187377 5.734989714471335 -50.996194102889724 0 0 0
53 0 8 -1.05 20.9883681820823 1.3724342628183546 -48.352155694125855 0 0 0
107 0 8 -1.05 19.124398811674485 7.5923143743514965 -48.4550674637628 0 0 0
54 0 8 -1.05 20.81380248201952 3.1715921529180884 -50.95007582810957 0 0 0
56 0 8 -1.05 23.048527637244884 3.2830919394239713 -49.16429280759294 0 0 0
105 0 8 -1.05 17.251925097887565 7.693450437926457 -51.008380914245116 0 0 0
104 0 8 -1.05 17.126337036965563 5.670636072302332 -49.02156648260597 0 0 0
55 0 8 -1.05 23.516084417599973 1.3511467139238433 -51.16857222858164 0 0 0
109 0 7 1.575 19.243296006785517 7.687038228904347 -51.27822887035964 0 0 0
58 0 7 1.575 23.087954896341262 3.300511878340771 -51.15974394213127 0 0 0
57 0 6 1.05 22.295514386028007 0.6842781899449332 -49.72903885875299 0 0 0
52 0 6 1.05 21.084155914318806 3.408744324047402 -48.94717726939826 0 0 0
102 0 7 1.575 17.14926884768567 5.6144087913594145 -51.06530255643126 0 0 0
103 0 6 1.05 17.062139646486717 7.750855355564245 -48.943185483577 0 0 0
108 0 6 1.05 19.151412648027133 5.513609522836308 -48.936649315013526 0 0 0
51 0 7 1.575 23.386363796631954 1.13764884454669 -53.15407299428671 0 0 0
116 0 7 1.575 22.58712638530251 6.412613687664009 -50.000727534975056 0 0 0
45 0 7 1.575 18.864402999613738 2.5779463050865887 -51.545614360777016 0 0 0
117 0 8 -1.05 23.1029678435459 7.491949743953835 -53.114933363537354 0 0 0
119 0 8 -1.05 24.452586594909793 5.664026131684397 -49.43920816093641 0 0 0
59 0 8 -1.05 23.41582315590096 3.16048888285686 -53.14920330895184 0 0 0
113 0 8 -1.05 21.104072949378065 7.67105434565528 -50.48486594694678 0 0 0
44 0 8 -1.05 17.752521051799658 1.592029211039323 -52.93988505024198 0 0 0
110 0 8 -1.05 19.68785290189626 7.911088136045034 -53.14378666194323 0 0 0
115 0 8 -1.05 22.396052029933703 5.190650530449956 -51.5295905637225 0 0 0
46 0 8 -1.05 19.442446189867358 3.607423584202786 -53.15374806860138 0 0 0
47 0 6 1.05 19.619700452763873 1.3607139332743348 -53.99682049744726 0 0 0
114 0 6 1.05 21.526333295436558 8.352591243767886 -53.922465076246645 0 0 0
43 0 6 1.05 17.317090555961894 3.6936608770130563 -53.40717434319691 0 0 0
118 0 6 1.05 23.319982201698757 5.509248568905004 -53.40762973843525 0 0 0
111 0 7 1.575 20.51593030275563 4.769555172489937 -52.0474408086252 0 0 0
42 0 8 -1.05 17.326178666416794 3.6380698483794385 -51.10480459710343 0 0 0
101 0 8 -1.05 17.02414490357656 5.666398294804052 -53.018592511408805 0 0 0
140 0 7 1.575 7.508230104928672 8.675371409362384 -52.19449098702874 0 0 0
128 0 8 -1.05 2.302598502748788 9.543104573563669 -50.70276901832516 0 0 0
130 0 8 -1.05 4.2446201373697425 9.460830613779109 -52.80200273419509 0 0 0
123 0 7 1.575 0.18182081308878775 11.7618045619538 -53.06850785174003 0 0 0
127 0 6 1.05 2.251324345681356 9.559504049779347 -53.207787173976456 0 0 0
126 0 8 -1.05 2.1219530080151894 11.626047802094744 -53.02542988373547 0 0 0
124 0 8 -1.05 0.18597443798575236 9.780286041124 -53.11497820829643 0 0 0
139 0 8 -1.05 6.667450024174334 11.975644251706006 -53.14922015114706 0 0 0
125 0 7 1.575 1.1421645770527016 10.805366217726387 -49.912538385512114 0 0 0
131 0 7 1.575 4.346797882405485 9.744056902709252 -50.93296133464119 0 0 0
132 0 7 1.575 4.367585473513387 11.916278268247012 -48.86970149094656 0 0 0
137 0 6 1.05 6.502555914074305 9.708977316503438 -48.893445992687205 0 0 0
138 0 6 1.05 6.468085775110084 11.760733150078636 -51.151994349419155 0 0 0
135 0 8 -1.05 6.364322690383379 9.679235686433607 -50.91056362093519 0 0 0
136 0 8 -1.05 6.355423720476803 11.901412771736103 -48.760832813377085 0 0 0
134 0 8 -1.05 4.33816768884773 11.792450911719595 -50.83136582770692 0 0 0
133 0 8 -1.05 4.427057081708778 9.963578266241191 -48.7588955503684 0 0 0
122 0 8 -1.05 0.028576160667128335 11.85292811985567 -51.01105334340324 0 0 0
191 0 7 1.575 3.3229164165983947 12.821521162216335 -52.211346600055926 0 0 0
198 0 7 1.575 6.506160883661155 13.920564498961166 -53.1528516182351 0 0 0
194 0 6 1.05 4.374346348952604 16.018523760392103 -53.677181876760315 0 0 0
195 0 8 -1.05 4.5405150622938235 14.07934167139854 -52.94063241384193 0 0 0
190 0 8 -1.05 2.390101355505687 16.300083951320655 -53.256324994547384 0 0 0
193 0 8 -1.05 4.082301820981607 16.159519097073407 -50.460954826178934 0 0 0
199 0 8 -1.05 6.636310715157216 13.928052210382699 -51.107074325261465 0 0 0
197 0 8 -1.05 6.415638166971961 15.850884343737897 -53.462608672326276 0 0 0
196 0 7 1.575 5.424321217967914 14.865986621461898 -50.05874728189819 0 0 0
188 0 6 1.05 2.211763182992735 13.947101883377504 -49.058542244149216 0 0 0
183 0 7 1.575 0.07789213476157594 16.082127490583186 -48.9573480107246 0 0 0
182 0 6 1.05 0.16702353444521237 13.929309091817489 -51.1067932836953 0 0 0
189 0 7 1.575 2.2434447377392193 15.994565236849418 -51.39031365243846 0 0 0
184 0 8 -1.05 0.1740091082004377 14.094996512131704 -48.88919786651715 0 0 0
185 0 8 -1.05 0.2984410487105414 16.11861289201123 -50.912522809742754 0 0 0
187 0 8 -1.05 2.086487546034916 15.955454012881145 -48.496823458020174 0 0 0
186 0 8 -1.05 2.295524117341923 14.060185154731574 -51.0398023297465 0 0 0
181 0 8 -1.05 0.07817675452891744 13.75648241153853 -53.10101848909767 0 0 0
142 0 8 -1.05 8.572008766628688 11.877875089679419 -51.030758915766775 0 0 0
148 0 8 -1.05 10.792004285761593 9.6717005854302 -51.03221081109347 0 0 0
143 0 7 1.575 8.62154715832291 11.818800223065299 -53.08401227262515 0 0 0
147 0 7 1.575 10.73469627479955 9.728659272864201 -53.06569303917399 0 0 0
146 0 8 -1.05 10.598634405227168 11.720474902942083 -53.09736382904185 0 0 0
144 0 8 -1.05 8.750265191222939 9.850087691705392 -53.05201200804067 0 0 0
145 0 7 1.575 9.670670427867217 10.759489873239866 -49.96850618020929 0 0 0
201 0 8 -1.05 8.503435706437378 13.794214356961957 -53.1538025565934 0 0 0
211 0 7 1.575 11.831148652487558 12.944052768820587 -52.32564901885947 0 0 0
210 0 8 -1.05 11.00719278820558 16.38149590861173 -53.31667120036061 0 0 0
208 0 7 1.575 10.75209694851761 14.040477236609126 -49.066897304909496 0 0 0
203 0 6 1.05 8.521408533428636 16.055483113694596 -49.055088113202196 0 0 0
202 0 6 1.05 8.664562351414302 13.94205415130353 -51.160474814952806 0 0 0
209 0 7 1.575 10.65663722517542 16.098694170092017 -51.4757617528015 0 0 0
204 0 8 -1.05 8.782398481233798 14.059045728339704 -48.926535415311314 0 0 0
205 0 8 -1.05 8.671978980304841 16.28638774959639 -51.1169226597104 0 0 0
207 0 8 -1.05 10.662093177903548 16.07415929540725 -48.67451859687263 0 0 0
206 0 8 -1.05 10.76056144852794 14.174628547913075 -51.01403315005854 0 0 0
160 0 7 1.575 16.027998236820125 8.737304221270087 -52.24592881618839 0 0 0
150 0 8 -1.05 12.703184078990164 9.615620332088188 -53.124827994678725 0 0 0
159 0 8 -1.05 15.100306874929583 11.984777059151822 -53.014346928061045 0 0 0
151 0 6 1.05 12.883786888457893 9.75515006502683 -51.12427819183412 0 0 0
152 0 7 1.575 12.764532821093656 11.852379757635743 -48.991587309893966 0 0 0
157 0 6 1.05 14.897975028286357 9.698384654434783 -48.99653308904653 0 0 0
158 0 7 1.575 14.92657281884446 11.859348579069154 -51.1078145413125 0 0 0
155 0 8 -1.05 14.996739838199927 9.843127409747934 -51.00657931698479 0 0 0
156 0 8 -1.05 14.735607437174123 11.77779703967551 -49.00888250676294 0 0 0
154 0 8 -1.05 12.871089882670944 11.965056840264955 -50.95533552441726 0 0 0
153 0 8 -1.05 12.80542166433334 9.885990945277243 -48.86516012341285 0 0 0
218 0 6 1.05 14.96784825543408 14.047369227332663 -53.285114473766185 0 0 0
214 0 7 1.575 12.999235590338873 16.234333044542378 -53.177724160869296 0 0 0
215 0 8 -1.05 12.965361156648708 14.277552469544615 -53.07085575766477 0 0 0
213 0 8 -1.05 12.673086863611656 16.25169712128763 -51.119165007479914 0 0 0
219 0 8 -1.05 15.120416014229004 13.86098357409526 -50.860000023928905 0 0 0
217 0 8 -1.05 14.944282933576059 16.166201906537694 -52.91700089439845 0 0 0
216 0 7 1.575 13.822778418473062 15.058221593769222 -50.165582388167245 0 0 0
173 0 8 -1.05 21.389776702400212 9.97451289081449 -48.8312671461356 0 0 0
174 0 8 -1.05 21.280065632830084 11.942264413774762 -50.84757493791886 0 0 0
176 0 8 -1.05 23.276508956282854 11.838530951152288 -48.72320673085169 0 0 0
175 0 8 -1.05 23.399251146109652 9.685894537419063 -50.89040536288947 0 0 0
178 0 6 1.05 23.36593033831633 11.826040521835745 -51.250934266946885 0 0 0
177 0 7 1.575 23.389384894731883 9.874431319732825 -48.93913011965718 0 0 0
172 0 7 1.575 21.265701954545438 11.944921864945083 -48.90035774253931 0 0 0
171 0 6 1.05 21.36010255682852 9.876638231728514 -51.16571405128604 0 0 0
165 0 7 1.575 18.16101552812418 10.806272470930525 -49.965593225294974 0 0 0
179 0 8 -1.05 23.6785314412958 11.973654622895763 -53.2145650865632 0 0 0
164 0 8 -1.05 17.257483497870965 9.87343346293743 -53.167689236569 0 0 0
166 0 8 -1.05 18.981809380482122 11.820067517060757 -53.07121596516669 0 0 0
167 0 7 1.575 19.214414281918586 9.885682276732057 -53.09708665027553 0 0 0
163 0 7 1.575 17.03122794644608 11.868712534669584 -53.202355940874064 0 0 0
170 0 8 -1.05 21.134021698901837 10.090834018604802 -53.13860322195775 0 0 0
168 0 8 -1.05 19.24368748341538 9.658994244724342 -51.05492037831368 0 0 0
162 0 8 -1.05 16.9957267270931 11.914434677475056 -51.00601140308553 0 0 0
180 0 7 1.575 24.4083108716244 8.630917500647453 -52.24727504989812 0 0 0
226 0 8 -1.05 19.201411724359236 14.034681321255832 -51.022044850320036 0 0 0
227 0 8 -1.05 18.997208161686597 15.960357133505253 -48.76623158496231 0 0 0
225 0 8 -1.05 17.283519098087993 16.101451265379186 -51.01837367416538 0 0 0
224 0 8 -1.05 17.128196003940136 14.137100808444258 -48.342391312813106 0 0 0
229 0 7 1.575 19.30523701425068 15.98851325380893 -51.26699947547672 0 0 0
222 0 6 1.05 17.14654640297289 14.016787610822858 -51.43787525771894 0 0 0
223 0 7 1.575 17.04680365377294 16.044120609427445 -49.08599685758014 0 0 0
228 0 6 1.05 19.199913077218596 13.953941035938842 -49.03386562997283 0 0 0
236 0 7 1.575 22.401448349744037 14.965159688975637 -49.975181457496916 0 0 0
237 0 8 -1.05 23.481186392521955 15.920710805698956 -53.155981629331976 0 0 0
239 0 8 -1.05 23.536390550288047 13.910164964692935 -51.05750223448184 0 0 0
233 0 8 -1.05 21.272678413267947 16.135449588901075 -50.95770748845232 0 0 0
230 0 8 -1.05 19.38726117969691 16.029108129107307 -53.1644898622538 0 0 0
235 0 8 -1.05 21.593359267296783 14.005167238551245 -53.15698909348796 0 0 0
234 0 6 1.05 21.45038691954999 16.030757331675 -53.30491473551463 0 0 0
238 0 7 1.575 23.549131035536384 13.951211312088146 -53.13009478127993 0 0 0
231 0 7 1.575 20.313033434652407 12.929069148271944 -52.28147336427334 0 0 0
221 0 8 -1.05 16.950183780562302 13.800223832509023 -53.380437958758556 0 0 0
260 0 7 1.575 7.398214622977935 17.14953764536114 -52.5528754539183 0 0 0
248 0 8 -1.05 2.3182724064208466 18.067371232278077 -51.079919790900504 0 0 0
250 0 8 -1.05 4.3186488350463454 18.014664418442685 -53.07495264774256 0 0 0
311 0 7 1.575 3.3515240514586018 21.387033733222655 -52.215176857703185 0 0 0
318 0 6 1.05 6.472732040526813 22.48984247730744 -53.271761985744355 0 0 0
243 0 7 1.575 0.21558646402829518 20.32701360575801 -53.08844731692718 0 0 0
314 0 7 1.575 4.319326003781737 24.537799205099613 -53.24889675705767 0 0 0
247 0 7 1.575 2.3586478170138703 18.249399131916107 -53.161865898933186 0 0 0
246 0 8 -1.05 2.172344412210728 20.223848703452777 -53.14523903469451 0 0 0
315 0 8 -1.05 4.370466052655588 22.622377212616282 -53.20756751771306 0 0 0
310 0 8 -1.05 2.1017924587660195 24.64794510525664 -53.00817954616839 0 0 0
244 0 8 -1.05 0.35840522050678536 18.354911722958835 -53.06397835073468 0 0 0
313 0 8 -1.05 4.1988881987817726 24.676068894263576 -51.12316893395817 0 0 0
259 0 8 -1.05 6.7202735778156155 20.398804835081105 -53.06417224572635 0 0 0
319 0 8 -1.05 6.526050220919485 22.388420153683136 -50.980031791645416 0 0 0
317 0 8 -1.05 6.266619956726026 24.54399660523489 -53.132178911642555 0 0 0
245 0 7 1.575 1.2245478949193205 19.180800349006297 -49.966775244339935 0 0 0
316 0 7 1.575 5.404903965977842 23.611702398442148 -50.06922051497983 0 0 0
251 0 6 1.05 4.4182013678163585 18.262272698351868 -51.115897688597094 0 0 0
308 0 6 1.05 2.2889628769810186 22.410511037358656 -48.97252228591763 0 0 0
303 0 6 1.05 25.28702904079976 24.522667799484342 -49.04562240193018 -1 0 0
302 0 7 1.575 0.11389023754239692 22.363161644370592 -50.98217589433361 0 0 0
252 0 6 1.05 4.35168351980545 20.374090735033956 -48.98936884863034 0 0 0
257 0 7 1.575 6.544193444924742 18.237841123217034 -48.949199260379274 0 0 0
258 0 7 1.575 6.4573715989850005 20.438434321016622 -51.14746773635973 0 0 0
309 0 7 1.575 2.256359317620117 24.516466266333452 -51.01814129122689 0 0 0
255 0 8 -1.05 6.736020198046961 18.261009631912163 -50.9544544718512 0 0 0
304 0 8 -1.05 0.17191205726444175 22.475890352090598 -48.97937335841707 0 0 0
305 0 8 -1.05 0.2357559350639429 24.41467378417369 -51.049814005952875 0 0 0
256 0 8 -1.05 6.513895112891192 20.214709452223758 -48.98808592069603 0 0 0
254 0 8 -1.05 4.477881431213 20.34221002473165 -51.02121016115014 0 0 0
307 0 8 -1.05 2.0568818903530963 24.610158633509677 -48.79260343391338 0 0 0
253 0 8 -1.05 4.598024971764946 18.346024421569 -48.92790523748446 0 0 0
306 0 8 -1.05 2.210485611005835 22.512756719396556 -50.99611645184331 0 0 0
301 0 8 -1.05 0.08562930032908606 22.45273903288625 -52.97675240879454 0 0 0
242 0 8 -1.05 0.17274811328565673 20.393796000834744 -51.02786870524586 0 0 0
326 0 8 -1.05 10.835379773913331 22.438049256746638 -50.98648119205695 0 0 0
327 0 8 -1.05 10.706218293110695 24.42035764192406 -48.919897251150886 0 0 0
325 0 8 -1.05 8.668758193114089 24.62560339036055 -51.032461531790695 0 0 0
324 0 8 -1.05 8.780471463617042 22.584045893516898 -48.94544007034954 0 0 0
329 0 6 1.05 10.794074278189878 24.521959163526784 -51.27605031038193 0 0 0
322 0 6 1.05 8.666584664523473 22.536944234752863 -51.22693017693872 0 0 0
323 0 7 1.575 8.719163101531956 24.596346066924706 -49.09174827670525 0 0 0
328 0 7 1.575 10.766721612029372 22.359723491986955 -49.043406024172405 0 0 0
265 0 7 1.575 8.855504879352612 18.556991921374472 -50.85925697481081 0 0 0
264 0 8 -1.05 8.788305461362757 18.430599462965336 -52.85901504724429 0 0 0
330 0 8 -1.05 11.105593230823844 24.738679174413654 -53.260076910845726 0 0 0
266 0 8 -1.05 10.63992437365679 20.320901790305086 -53.258177935427106 0 0 0
267 0 6 1.05 10.893394770631623 18.368824816450154 -53.71713252281118 0 0 0
263 0 7 1.575 8.69024746872633 20.447416617613538 -53.153860296121984 0 0 0
321 0 8 -1.05 8.50320520875533 22.35838594318209 -53.207221551628614 0 0 0
262 0 8 -1.05 8.491428123073884 20.429012310843536 -51.05858317387275 0 0 0
268 0 8 -1.05 10.69269942104185 18.00133899166319 -50.70557884530513 0 0 0
331 0 7 1.575 11.862562995741124 21.46284838372878 -52.35152012001931 0 0 0
280 0 7 1.575 16.45998348990781 17.231586176498308 -52.46677329125123 0 0 0
273 0 8 -1.05 13.001333344400628 18.381764580223088 -49.07803862593866 0 0 0
274 0 8 -1.05 13.008756270579836 20.389104429427036 -51.029260103456316 0 0 0
276 0 8 -1.05 12.936310287522057 20.36078802267004 -46.918081966715796 0 0 0
275 0 8 -1.05 16.071325741139823 18.71832483560784 -51.08391663163573 0 0 0
278 0 7 1.575 14.998158353788115 20.405214148719672 -51.23166205422619 0 0 0
277 0 6 1.05 15.053317305270406 18.173976689657714 -49.338741981483224 0 0 0
272 0 7 1.575 12.93280411190612 20.356130128263814 -49.03368259265512 0 0 0
271 0 6 1.05 12.614799392976876 18.366176613404146 -51.25279679042035 0 0 0
336 0 7 1.575 13.938848486388892 23.41319566517604 -50.123657146777404 0 0 0
337 0 8 -1.05 15.09781041619412 24.5364640398317 -53.166288467261055 0 0 0
339 0 8 -1.05 15.238874791489403 22.371126667878414 -51.09188648455821 0 0 0
279 0 8 -1.05 15.07167830744109 20.573571354881253 -53.11421211933302 0 0 0
333 0 8 -1.05 12.940926856826673 24.66189632084115 -51.116095107593566 0 0 0
335 0 8 -1.05 13.182303718384764 22.67008428114809 -53.06726866477178 0 0 0
334 0 7 1.575 13.060110157767847 24.63883454120051 -53.12575114910638 0 0 0
270 0 8 -1.05 12.873674358933016 18.184100665705532 -53.19054856273268 0 0 0
338 0 7 1.575 15.144070324117699 22.541172739538386 -53.171531538764306 0 0 0
346 0 8 -1.05 19.462813384521095 22.932796788840182 -51.31199707011595 0 0 0
293 0 8 -1.05 21.387300738314785 18.264721032912 -48.759117503459265 0 0 0
347 0 8 -1.05 17.92497196942447 23.121733019856794 -48.502502292403044 0 0 0
294 0 8 -1.05 21.2873512677674 20.169988043992323 -50.910834935815714 0 0 0
296 0 8 -1.05 23.248058780029755 20.289154545388158 -48.810859551429076 0 0 0
345 0 8 -1.05 17.374425016762725 24.64834316661354 -51.40839073323941 0 0 0
344 0 8 -1.05 14.962973443889538 22.388675960749158 -46.625434843888584 0 0 0
295 0 8 -1.05 23.344481512282318 18.138835866733224 -51.0184606870226 0 0 0
349 0 7 1.575 19.521768025501665 24.862500186643597 -51.456478837725456 0 0 0
298 0 6 1.05 23.414092816993428 20.2136453334886 -51.18800671025198 0 0 0
297 0 6 1.05 23.44145128261941 18.179816958837826 -48.97161202131353 0 0 0
292 0 7 1.575 21.241207311044693 20.201579791636462 -48.944640145476875 0 0 0
342 0 6 1.05 18.111668863540363 23.426900554014896 -52.95988853874028 0 0 0
343 0 7 1.575 16.965396079890144 24.475386729443137 -49.541147066381285 0 0 0
348 0 6 1.05 18.87963871786966 21.849525854318497 -49.76904706806875 0 0 0
291 0 7 1.575 21.338149280041385 18.132584398975272 -51.248796737290974 0 0 0
356 0 7 1.575 22.214697666718372 23.3165852092601 -50.08247559235826 0 0 0
285 0 7 1.575 17.98041739912338 19.053934673741068 -50.238758107826236 0 0 0
357 0 8 -1.05 23.64578981638619 24.569469391523267 -53.415706842309724 0 0 0
359 0 8 -1.05 23.55708322535552 22.33035107633072 -50.98950629415405 0 0 0
299 0 8 -1.05 23.75157812621165 20.42471004401109 -53.1565985369428 0 0 0
353 0 8 -1.05 21.396254791220244 24.785698400790533 -50.97706301986544 0 0 0
284 0 8 -1.05 17.447604574550752 18.391071868047003 -53.64964125189539 0 0 0
350 0 8 -1.05 19.47216588337928 24.831798563117726 -53.3778311690212 0 0 0
355 0 8 -1.05 21.357400517479462 22.405566914264003 -53.16313890170991 0 0 0
286 0 8 -1.05 18.461552488256775 20.545449993037344 -51.38416929095899 0 0 0
287 0 6 1.05 19.308188246456385 17.793959950265922 -54.00860076164285 0 0 0
354 0 6 1.05 21.495402324894243 24.410658230754507 -53.53255680895424 0 0 0
283 0 6 1.05 16.763113122744947 20.213429965389917 -54.062571409533405 0 0 0
358 0 6 1.05 23.372864760746545 22.378712955880356 -53.154553735805585 0 0 0
351 0 7 1.575 20.200515328228143 21.246000772895396 -52.13620854644432 0 0 0
290 0 8 -1.05 21.066239282240836 18.14774882143134 -53.1492386302499 0 0 0
288 0 8 -1.05 19.37447728742506 17.918287279420692 -50.83585196089879 0 0 0
282 0 8 -1.05 14.967191564614406 20.33001839896569 -49.164354550170906 0 0 0
341 0 8 -1.05 16.932314949066562 22.237845717795203 -53.92597323309519 0 0 0
300 0 7 1.575 24.581435115604467 17.138256661822606 -52.225134251325585 0 0 0
416 0 7 1.575 7.364571153154962 4.448052788504305 -48.170304381330766 0 0 0
368 0 6 1.05 2.051691879577592 3.417097662814888 -46.79967777514792 0 0 0
415 0 6 1.05 6.468745100081813 7.542818863060505 -46.84998346966035 0 0 0
361 0 7 1.575 25.269599617308174 1.3223420284814327 -47.0036219654191 -1 0 0
408 0 7 1.575 4.348803836411661 5.41155670181599 -46.78625556099434 0 0 0
371 0 8 -1.05 4.1029603837619835 3.438596061011965 -46.62368310956813 0 0 0
411 0 8 -1.05 4.302902906048595 7.4748957964518805 -46.764423746397306 0 0 0
80 0 8 -1.05 6.589129303357591 7.513878388613195 -48.87028554475185 0 0 0
72 0 8 -1.05 4.313254149282042 5.297319371377063 -48.75884020249857 0 0 0
365 0 8 -1.05 1.9241660109304701 1.2367899193050946 -46.80277286602541 0 0 0
406 0 8 -1.05 2.2974544794097973 5.441133472730927 -46.74190726733438 0 0 0
412 0 8 -1.05 6.352586182095595 5.437815522678948 -46.750465406497554 0 0 0
364 0 8 -1.05 25.396590245357146 3.301680508570213 -46.94068569419731 -1 0 0
9 0 8 -1.05 2.3569651677035077 3.279014755497646 -48.80103596822098 0 0 0
373 0 8 -1.05 6.590136349860774 0.9286168713307292 -46.47340501231585 0 0 0
404 0 8 -1.05 0.19546574234496555 9.797417900537456 -44.66777354488022 0 0 0
1 0 8 -1.05 0.15155741231813424 1.168261960963251 -48.95140164714731 0 0 0
372 0 7 1.575 5.004200384910052 1.8159989523513878 -47.02032439759659 0 0 0
405 0 7 1.575 1.1815065179137618 6.6744203991744255 -45.833386917594034 0 0 0
369 0 7 1.575 2.1936466100521597 1.2449446743179908 -48.90556841585094 0 0 0
663 0 7 1.575 3.300412333707884 4.390725125809871 -43.73009871179091 0 0 0
414 0 6 1.05 6.4612367187700395 5.380077296986378 -44.72205381459573 0 0 0
362 0 6 1.05 0.034124956123723675 3.393161146825109 -44.93697962821445 0 0 0
409 0 7 1.575 4.352767254337138 7.632867328990484 -44.79769447234212 0 0 0
367 0 7 1.575 2.192704856699065 1.2702094570588358 -44.82105971273363 0 0 0
366 0 8 -1.05 2.0611346682319103 3.229565335346946 -44.59119348618761 0 0 0
410 0 8 -1.05 4.3612620127516255 5.629300674146924 -44.707224098881625 0 0 0
407 0 8 -1.05 2.2951269085147827 7.6816816169927025 -44.556561986390584 0 0 0
363 0 8 -1.05 0.17658168883002748 1.2997289141414057 -44.68954273826384 0 0 0
665 0 8 -1.05 4.188168917979745 7.64598432299838 -42.544508739455416 0 0 0
374 0 8 -1.05 6.686738697954078 3.1962657403834154 -44.450330957481675 0 0 0
667 0 8 -1.05 6.552125043507868 5.4264856238943295 -42.4842316355878 0 0 0
413 0 8 -1.05 6.326040380183746 7.535770090780831 -44.6093927837491 0 0 0
615 0 7 1.575 1.3131471328378626 2.125528554992925 -41.549374878612845 0 0 0
666 0 7 1.575 5.326554003459038 6.510867934616117 -41.507655863250065 0 0 0
618 0 7 1.575 4.3318367951283445 1.2749051136679603 -42.60537340146448 0 0 0
655 0 6 1.05 0.14600743801310606 5.435207249966815 -42.757974094094145 0 0 0
625 0 6 1.05 6.464413392977243 3.381203160596876 -42.46901949997854 0 0 0
662 0 7 1.575 2.2054877893420834 7.629600751038552 -42.61132062201168 0 0 0
622 0 8 -1.05 6.343677440739219 1.1460034413074522 -42.47960872052536 0 0 0
658 0 8 -1.05 0.1765215099991204 7.5868769745801705 -42.456169898060914 0 0 0
621 0 8 -1.05 4.260389585545939 3.2873740857457068 -42.37996442795078 0 0 0
659 0 8 -1.05 2.2047713206380117 5.579185078768284 -42.55699735803889 0 0 0
616 0 8 -1.05 2.3718127455378806 1.122680823880361 -42.73763431496949 0 0 0
370 0 8 -1.05 4.444233833773193 1.1762612982875191 -44.559406350635186 0 0 0
403 0 8 -1.05 0.036540838343269676 5.537302133679963 -44.72880327416564 0 0 0
614 0 8 -1.05 25.428994604845933 3.4745509602222 -41.992979236002306 -1 0 0
626 0 7 1.575 6.7038118092992445 1.1727464508719059 -44.54065442512002 0 0 0
418 0 8 -1.05 8.568288438687844 7.713278012245135 -46.785356135238295 0 0 0
21 0 8 -1.05 8.711339806517605 1.1730716521683568 -48.97238859987875 0 0 0
382 0 6 1.05 10.725454052656042 3.3501530450255435 -46.91276710475624 0 0 0
375 0 6 1.05 8.643543551572812 1.2946946751468411 -46.95423160202004 0 0 0
379 0 8 -1.05 10.735890546445896 1.2448379091586361 -46.71071447424331 0 0 0
420 0 8 -1.05 10.85162137352317 5.415120890960728 -46.79188617521431 0 0 0
378 0 8 -1.05 8.593986249554234 3.3845023457422205 -46.79522630329026 0 0 0
29 0 8 -1.05 10.893648533127864 3.41179649909113 -48.92989554614051 0 0 0
419 0 7 1.575 9.647732777800341 6.494131216982375 -45.79689666284072 0 0 0
383 0 7 1.575 11.827119915188979 0.2214317745756284 -47.99293080020608 0 0 0
417 0 8 -1.05 8.627973701315007 5.37957587746982 -44.52217392427172 0 0 0