LAMMPS (17 Feb 2022)
variable layer index 21
variable type string fa_tet_half_qeq
variable rand equal round(random(0,1e7,452345))
variable temp index 50000 45000 40500 36450 32805 29524 26571 23913 21521 19368 17431 15687 14118 12706 11435 10291 9261 8334 7500 6750 6075 5467 4920 4428 3985 3586 3227 2904 2613 2351 2115 1903 1712 1540 1386 1247 1122 1009 908 817 735 661 594 534 480 432 388 349 314 282 253 227 204 183 164 147 132 118 106 95 85 76 68 61 54 48 43 38 34 30 27 24 21 18 16 14 12 10 9 8 7 6 5 4 3 2 1

variable nsteps equal 972  # (nfe*nfe)/4

include settings.lmp
units              real
atom_style         full
timestep	   0.5
boundary	   p p f

pair_style         lj/cut/coul/long 12.0
bond_style         harmonic
angle_style        harmonic
dihedral_style     fourier
improper_style     cvff
kspace_style       pppm 1.0e-6
kspace_modify      slab 3.0

pair_modify        mix arithmetic
special_bonds      amber
neighbor           2.0 bin
neigh_modify       every 1 delay 0 check yes

read_data 001-dbt_3x3_${layer}L_${type}.data
read_data 001-dbt_3x3_21L_${type}.data
read_data 001-dbt_3x3_21L_fa_tet_half_qeq.data
Reading data file ...
  orthogonal box = (0 0 -64.778423) to (25.44 25.44 32.908)
  1 by 1 by 4 MPI processor grid
  reading atoms ...
  4311 atoms
  reading velocities ...
  4311 velocities
  scanning bonds ...
  3 = max bonds/atom
  scanning angles ...
  3 = max angles/atom
  scanning impropers ...
  1 = max impropers/atom
  reading bonds ...
  36 bonds
  reading angles ...
  54 angles
  reading impropers ...
  9 impropers
Finding 1-2 1-3 1-4 neighbors ...
  special bond factors lj:    0        0        0.5     
  special bond factors coul:  0        0        0.8333333333333334
     3 = max # of 1-2 neighbors
     2 = max # of 1-3 neighbors
     2 = max # of 1-4 neighbors
     3 = max # of special neighbors
  special bonds CPU = 0.000 seconds
  read_data CPU = 0.013 seconds

include ff_formic_acid_fe304.param
#####################-----formic_acid-----######################################

mass  1   12.011   # Sp2 C carbonyl group
mass  2    1.008   # H bonded to non-sp3 carbon with 2 electrwd. group
mass  3   15.9994  # Oxygen with one connected atom
mass  4   15.9994  # Oxygen in hydroxyl group
mass  5    1.008   # Hydroxyl group

pair_coeff  1  1   0.0988  3.31521230994  # c
pair_coeff  2  2   0.0161  2.44729877873  # h5
pair_coeff  3  3   0.1463  3.04812087425  # o
pair_coeff  4  4   0.0930  3.24287133403  # oh
pair_coeff  5  5   0.0047  0.537924646013 # ho

bond_coeff  1  361.80  1.105  # c-h5
bond_coeff  2  652.57  1.218  # c=o
bond_coeff  3  383.13  1.351  # c-oh
bond_coeff  4  563.51  0.973  # o-h

angle_coeff  1   51.617  106.550  # c-oh-ho
angle_coeff  2   65.930  123.650  # h5-c=o
angle_coeff  3   65.262  109.490  # h5-c-oh
angle_coeff  4  115.745  122.100  # o=c-oh

dihedral_coeff  1  1  2.3  2  180.0               # h5-c-oh-ho
dihedral_coeff  2  2  2.3  2  180.0  1.9  1  0.0  # o=c-oh-ho

                              #  h5
                              #  |
improper_coeff  1  10.5 -1 2  #  c
                              # / \
                              # o  oh

#####################-----formate-----###########################################

angle_coeff  5   118.817 130.250  # o-c-o

                              #  h5
                              #  |
improper_coeff  2  10.5 -1 2  #  c
                              # / \
                              # o  o

#####################-----magnetite-----#########################################

mass  6   55.845   # Iron(II)
mass  7   55.845   # Iron(III)
mass  8   15.9994  # Bridging oxygen
mass  9   15.9994  # Hydroxyl oxygen
mass  10   1.008   # Hydroxyl hydrogen

pair_coeff  6  6   9.0298e-07  4.90620  # fe2
pair_coeff  7  7   9.0298e-07  4.90620  # fe3
pair_coeff  8  8   0.1554      3.16554  # ob
pair_coeff  9  9   0.1554      3.16554  # oh
pair_coeff  10 10  0.0         0.0      # ho

bond_coeff  5  554.1349  1.0   # oh-ho
bond_coeff  6    0.0     2.08  # fe-oh (dummy bond)

angle_coeff  6   30.0  109.470  # fe-oh-ho

##################################################################################

group Felayer molecule 101 100 102
324 atoms in group Felayer
group Fe type 6 7
1818 atoms in group Fe
group swpFe intersect Fe Felayer
108 atoms in group swpFe

label minimize_temp

  variable ftemp equal v_temp

  # Electrostatic relaxation
  fix swp swpFe atom/swap 1 1 ${rand} ${temp} ke no types 6 7
  fix swp swpFe atom/swap 1 1 855824 ${temp} ke no types 6 7
  fix swp swpFe atom/swap 1 1 855824 50000 ke no types 6 7
  thermo 100
  thermo_style custom step v_ftemp pe f_swp[1] f_swp[2]
  run ${nsteps}
  run 972
WARNING: No fixes with time integration, atoms won't move (../verlet.cpp:60)
PPPM initialization ...
  using 12-bit tables for long-range coulomb (../kspace.cpp:340)
  G vector (1/distance) = 0.29499995
  grid = 45 45 250
  stencil order = 5
  estimated absolute RMS force accuracy = 0.00038527262
  estimated relative force accuracy = 1.160237e-06
  using double precision KISS FFT
  3d grid and FFT values/proc = 554040 378675
  generated 45 of 45 mixed pair_coeff terms from arithmetic mixing rule
Neighbor list info ...
  update every 1 steps, delay 0 steps, check yes
  max neighbors/atom: 2000, page size: 100000
  master list distance cutoff = 14
  ghost atom cutoff = 14
  binsize = 7, bins = 4 4 14
  1 neighbor lists, perpetual/occasional/extra = 1 0 0
  (1) pair lj/cut/coul/long, perpetual
      attributes: half, newton on
      pair build: half/bin/newton
      stencil: half/bin/3d
      bin: standard
Per MPI rank memory allocation (min/avg/max) = 24.35 | 35.11 | 63.71 Mbytes
Step v_ftemp PotEng f_swp[1] f_swp[2] 
       0        50000   -784833.53            0            0 
     100        50000      -785723          100           71 
     200        50000    -785526.3          200          141 
     300        50000   -785131.67          300          203 
     400        50000   -785873.59          400          263 
     500        50000   -785342.47          500          326 
     600        50000   -784980.72          600          389 
     700        50000   -785298.59          700          453 
     800        50000   -785050.84          800          523 
     900        50000   -785438.29          900          586 
     972        50000   -785572.88          972          633 
Loop time of 248.785 on 4 procs for 972 steps with 4311 atoms

Performance: 0.169 ns/day, 142.195 hours/ns, 3.907 timesteps/s
91.9% CPU use with 4 MPI tasks x no OpenMP threads

MPI task timing breakdown:
Section |  min time  |  avg time  |  max time  |%varavg| %total
---------------------------------------------------------------
Pair    | 2.8305     | 7.1347     | 10.45      | 121.7 |  2.87
Bond    | 0.0013113  | 0.00285    | 0.0072725  |   4.8 |  0.00
Kspace  | 57.877     | 61.168     | 65.513     |  41.7 | 24.59
Neigh   | 16.764     | 16.804     | 16.861     |   0.9 |  6.75
Comm    | 0.48739    | 0.54464    | 0.59947    |   6.4 |  0.22
Output  | 0.00018938 | 0.0004018  | 0.00087647 |   0.0 |  0.00
Modify  | 163.08     | 163.11     | 163.14     |   0.2 | 65.56
Other   |            | 0.02539    |            |       |  0.01

Nlocal:        1077.75 ave        1494 max         657 min
Histogram: 1 1 0 0 0 0 0 0 1 1
Nghost:        8908.25 ave       11934 max        5689 min
Histogram: 1 1 0 0 0 0 0 0 0 2
Neighs:         536710 ave      798273 max      198736 min
Histogram: 1 0 0 1 0 0 0 0 0 2

Total # of neighbors = 2146840
Ave neighs/atom = 497.99119
Ave special neighs/atom = 0.029227557
Neighbor list builds = 1944
Dangerous builds = 0

  unfix swp
  thermo_style custom step temp pe

next temp
jump SELF minimize_temp

  variable ftemp equal v_temp

  # Electrostatic relaxation
  fix swp swpFe atom/swap 1 1 ${rand} ${temp} ke no types 6 7
  fix swp swpFe atom/swap 1 1 710414 ${temp} ke no types 6 7
  fix swp swpFe atom/swap 1 1 710414 45000 ke no types 6 7
  thermo 100
  thermo_style custom step v_ftemp pe f_swp[1] f_swp[2]
  run ${nsteps}
  run 972
WARNING: No fixes with time integration, atoms won't move (../verlet.cpp:60)
PPPM initialization ...
  using 12-bit tables for long-range coulomb (../kspace.cpp:340)
  G vector (1/distance) = 0.29499995
  grid = 45 45 250
  stencil order = 5
  estimated absolute RMS force accuracy = 0.00038527262
  estimated relative force accuracy = 1.160237e-06
  using double precision KISS FFT
  3d grid and FFT values/proc = 554040 378675
  generated 45 of 45 mixed pair_coeff terms from arithmetic mixing rule
Per MPI rank memory allocation (min/avg/max) = 24.35 | 35.11 | 63.71 Mbytes
Step v_ftemp PotEng f_swp[1] f_swp[2] 
     972        45000   -785572.88            0            0 
    1000        45000   -785888.71           28           14 
    1100        45000   -785672.12          128           75 
    1200        45000   -785606.54          228          133 
    1300        45000   -785429.97          328          202 
    1400        45000   -785958.45          428          259 
    1500        45000    -786118.6          528          322 
    1600        45000   -785857.45          628          394 
    1700        45000   -785175.49          728          459 
    1800        45000   -785892.12          828          520 
    1900        45000   -785337.64          928          578 
    1944        45000   -785395.39          972          606 
Loop time of 272.428 on 4 procs for 972 steps with 4311 atoms

Performance: 0.154 ns/day, 155.709 hours/ns, 3.568 timesteps/s
93.9% CPU use with 4 MPI tasks x no OpenMP threads

MPI task timing breakdown:
Section |  min time  |  avg time  |  max time  |%varavg| %total
---------------------------------------------------------------
Pair    | 2.8987     | 7.6188     | 11.27      | 128.8 |  2.80
Bond    | 0.0018894  | 0.0037954  | 0.008797   |   4.7 |  0.00
Kspace  | 64.636     | 68.291     | 73.014     |  43.1 | 25.07
Neigh   | 16.882     | 16.908     | 16.944     |   0.6 |  6.21
Comm    | 0.40123    | 0.45079    | 0.48579    |   5.2 |  0.17
Output  | 0.00021707 | 0.00057969 | 0.0013635  |   0.0 |  0.00
Modify  | 179.12     | 179.13     | 179.14     |   0.1 | 65.75
Other   |            | 0.02759    |            |       |  0.01

Nlocal:        1077.75 ave        1494 max         657 min
Histogram: 1 1 0 0 0 0 0 0 1 1
Nghost:        8908.25 ave       11934 max        5689 min
Histogram: 1 1 0 0 0 0 0 0 0 2
Neighs:         536710 ave      798273 max      198736 min
Histogram: 1 0 0 1 0 0 0 0 0 2

Total # of neighbors = 2146840
Ave neighs/atom = 497.99119
Ave special neighs/atom = 0.029227557
Neighbor list builds = 1944
Dangerous builds = 0

  unfix swp
  thermo_style custom step temp pe

next temp
jump SELF minimize_temp

  variable ftemp equal v_temp

  # Electrostatic relaxation
  fix swp swpFe atom/swap 1 1 ${rand} ${temp} ke no types 6 7
  fix swp swpFe atom/swap 1 1 755762 ${temp} ke no types 6 7
  fix swp swpFe atom/swap 1 1 755762 40500 ke no types 6 7
  thermo 100
  thermo_style custom step v_ftemp pe f_swp[1] f_swp[2]
  run ${nsteps}
  run 972
WARNING: No fixes with time integration, atoms won't move (../verlet.cpp:60)
PPPM initialization ...
  using 12-bit tables for long-range coulomb (../kspace.cpp:340)
  G vector (1/distance) = 0.29499995
  grid = 45 45 250
  stencil order = 5
  estimated absolute RMS force accuracy = 0.00038527262
  estimated relative force accuracy = 1.160237e-06
  using double precision KISS FFT
  3d grid and FFT values/proc = 554040 378675
  generated 45 of 45 mixed pair_coeff terms from arithmetic mixing rule
Per MPI rank memory allocation (min/avg/max) = 24.35 | 35.11 | 63.71 Mbytes
Step v_ftemp PotEng f_swp[1] f_swp[2] 
    1944        40500   -785395.39            0            0 
    2000        40500      -785682           56           37 
    2100        40500    -785600.5          156           88 
    2200        40500   -786078.94          256          148 
    2300        40500    -785729.3          356          207 
    2400        40500   -785825.31          456          269 
    2500        40500   -785848.06          556          313 
    2600        40500   -785813.88          656          372 
    2700        40500   -785864.74          756          435 
    2800        40500   -785342.74          856          493 
    2900        40500   -785318.88          956          555 
    2916        40500   -785484.17          972          565 
Loop time of 270.971 on 4 procs for 972 steps with 4311 atoms

Performance: 0.155 ns/day, 154.876 hours/ns, 3.587 timesteps/s
94.3% CPU use with 4 MPI tasks x no OpenMP threads

MPI task timing breakdown:
Section |  min time  |  avg time  |  max time  |%varavg| %total
---------------------------------------------------------------
Pair    | 2.9034     | 7.4325     | 10.993     | 124.8 |  2.74
Bond    | 0.0014817  | 0.003135   | 0.0078823  |   4.9 |  0.00
Kspace  | 63.618     | 67.182     | 71.712     |  41.6 | 24.79
Neigh   | 17.084     | 17.114     | 17.158     |   0.7 |  6.32
Comm    | 0.48347    | 0.54386    | 0.58298    |   5.5 |  0.20
Output  | 0.00022368 | 0.00053659 | 0.0012914  |   0.0 |  0.00
Modify  | 178.65     | 178.67     | 178.68     |   0.1 | 65.94
Other   |            | 0.02779    |            |       |  0.01

Nlocal:        1077.75 ave        1494 max         657 min
Histogram: 1 1 0 0 0 0 0 0 1 1
Nghost:        8908.25 ave       11934 max        5689 min
Histogram: 1 1 0 0 0 0 0 0 0 2
Neighs:         536710 ave      798273 max      198736 min
Histogram: 1 0 0 1 0 0 0 0 0 2

Total # of neighbors = 2146840
Ave neighs/atom = 497.99119
Ave special neighs/atom = 0.029227557
Neighbor list builds = 1944
Dangerous builds = 0

  unfix swp
  thermo_style custom step temp pe

next temp
jump SELF minimize_temp

  variable ftemp equal v_temp

  # Electrostatic relaxation
  fix swp swpFe atom/swap 1 1 ${rand} ${temp} ke no types 6 7
  fix swp swpFe atom/swap 1 1 4574249 ${temp} ke no types 6 7
  fix swp swpFe atom/swap 1 1 4574249 36450 ke no types 6 7
  thermo 100
  thermo_style custom step v_ftemp pe f_swp[1] f_swp[2]
  run ${nsteps}
  run 972
WARNING: No fixes with time integration, atoms won't move (../verlet.cpp:60)
PPPM initialization ...
  using 12-bit tables for long-range coulomb (../kspace.cpp:340)
  G vector (1/distance) = 0.29499995
  grid = 45 45 250
  stencil order = 5
  estimated absolute RMS force accuracy = 0.00038527262
  estimated relative force accuracy = 1.160237e-06
  using double precision KISS FFT
  3d grid and FFT values/proc = 554040 378675
  generated 45 of 45 mixed pair_coeff terms from arithmetic mixing rule
Per MPI rank memory allocation (min/avg/max) = 24.35 | 35.11 | 63.71 Mbytes
Step v_ftemp PotEng f_swp[1] f_swp[2] 
    2916        36450   -785484.17            0            0 
    3000        36450   -786165.17           84           48 
    3100        36450   -785531.97          184          103 
    3200        36450   -785530.25          284          157 
    3300        36450   -785557.72          384          217 
    3400        36450   -785396.14          484          271 
    3500        36450   -785955.02          584          331 
    3600        36450   -785783.41          684          390 
    3700        36450    -785814.3          784          445 
    3800        36450   -785214.12          884          505 
    3888        36450   -785857.17          972          554 
Loop time of 270.737 on 4 procs for 972 steps with 4311 atoms

Performance: 0.155 ns/day, 154.742 hours/ns, 3.590 timesteps/s
94.2% CPU use with 4 MPI tasks x no OpenMP threads

MPI task timing breakdown:
Section |  min time  |  avg time  |  max time  |%varavg| %total
---------------------------------------------------------------
Pair    | 2.851      | 7.4043     | 10.948     | 125.2 |  2.73
Bond    | 0.0014332  | 0.003056   | 0.0078499  |   5.0 |  0.00
Kspace  | 63.201     | 66.749     | 71.303     |  41.8 | 24.65
Neigh   | 17.063     | 17.092     | 17.136     |   0.7 |  6.31
Comm    | 0.49001    | 0.55121    | 0.59134    |   5.6 |  0.20
Output  | 0.00020118 | 0.00065365 | 0.0018502  |   0.0 |  0.00
Modify  | 178.9      | 178.91     | 178.93     |   0.1 | 66.08
Other   |            | 0.02806    |            |       |  0.01

Nlocal:        1077.75 ave        1494 max         657 min
Histogram: 1 1 0 0 0 0 0 0 1 1
Nghost:        8908.25 ave       11934 max        5689 min
Histogram: 1 1 0 0 0 0 0 0 0 2
Neighs:         536710 ave      798273 max      198736 min
Histogram: 1 0 0 1 0 0 0 0 0 2

Total # of neighbors = 2146840
Ave neighs/atom = 497.99119
Ave special neighs/atom = 0.029227557
Neighbor list builds = 1944
Dangerous builds = 0

  unfix swp
  thermo_style custom step temp pe

next temp
jump SELF minimize_temp

  variable ftemp equal v_temp

  # Electrostatic relaxation
  fix swp swpFe atom/swap 1 1 ${rand} ${temp} ke no types 6 7
  fix swp swpFe atom/swap 1 1 5979850 ${temp} ke no types 6 7
  fix swp swpFe atom/swap 1 1 5979850 32805 ke no types 6 7
  thermo 100
  thermo_style custom step v_ftemp pe f_swp[1] f_swp[2]
  run ${nsteps}
  run 972
WARNING: No fixes with time integration, atoms won't move (../verlet.cpp:60)
PPPM initialization ...
  using 12-bit tables for long-range coulomb (../kspace.cpp:340)
  G vector (1/distance) = 0.29499995
  grid = 45 45 250
  stencil order = 5
  estimated absolute RMS force accuracy = 0.00038527262
  estimated relative force accuracy = 1.160237e-06
  using double precision KISS FFT
  3d grid and FFT values/proc = 554040 378675
  generated 45 of 45 mixed pair_coeff terms from arithmetic mixing rule
Per MPI rank memory allocation (min/avg/max) = 24.35 | 35.11 | 63.71 Mbytes
Step v_ftemp PotEng f_swp[1] f_swp[2] 
    3888        32805   -785857.17            0            0 
    3900        32805      -785904           12            7 
    4000        32805   -785921.59          112           56 
    4100        32805    -786062.6          212          108 
    4200        32805   -785423.87          312          163 
    4300        32805   -785784.39          412          225 
    4400        32805   -785706.32          512          278 
    4500        32805   -785749.51          612          323 
    4600        32805   -786051.38          712          386 
    4700        32805   -786130.52          812          438 
    4800        32805   -785770.46          912          492 
    4860        32805   -785699.06          972          526 
Loop time of 270.636 on 4 procs for 972 steps with 4311 atoms

Performance: 0.155 ns/day, 154.685 hours/ns, 3.592 timesteps/s
93.9% CPU use with 4 MPI tasks x no OpenMP threads

MPI task timing breakdown:
Section |  min time  |  avg time  |  max time  |%varavg| %total
---------------------------------------------------------------
Pair    | 2.8748     | 7.4569     | 11.006     | 126.0 |  2.76
Bond    | 0.0016749  | 0.0032921  | 0.0079218  |   4.7 |  0.00
Kspace  | 63.875     | 67.426     | 72.01      |  41.9 | 24.91
Neigh   | 16.901     | 16.93      | 16.971     |   0.7 |  6.26
Comm    | 0.46254    | 0.51354    | 0.55114    |   5.1 |  0.19
Output  | 0.00025803 | 0.00068371 | 0.001552   |   0.0 |  0.00
Modify  | 178.27     | 178.28     | 178.29     |   0.1 | 65.87
Other   |            | 0.025      |            |       |  0.01

Nlocal:        1077.75 ave        1494 max         657 min
Histogram: 1 1 0 0 0 0 0 0 1 1
Nghost:        8908.25 ave       11934 max        5689 min
Histogram: 1 1 0 0 0 0 0 0 0 2
Neighs:         536710 ave      798273 max      198736 min
Histogram: 1 0 0 1 0 0 0 0 0 2

Total # of neighbors = 2146840
Ave neighs/atom = 497.99119
Ave special neighs/atom = 0.029227557
Neighbor list builds = 1944
Dangerous builds = 0

  unfix swp
  thermo_style custom step temp pe

next temp
jump SELF minimize_temp

  variable ftemp equal v_temp

  # Electrostatic relaxation
  fix swp swpFe atom/swap 1 1 ${rand} ${temp} ke no types 6 7
  fix swp swpFe atom/swap 1 1 2707118 ${temp} ke no types 6 7
  fix swp swpFe atom/swap 1 1 2707118 29524 ke no types 6 7
  thermo 100
  thermo_style custom step v_ftemp pe f_swp[1] f_swp[2]
  run ${nsteps}
  run 972
WARNING: No fixes with time integration, atoms won't move (../verlet.cpp:60)
PPPM initialization ...
  using 12-bit tables for long-range coulomb (../kspace.cpp:340)
  G vector (1/distance) = 0.29499995
  grid = 45 45 250
  stencil order = 5
  estimated absolute RMS force accuracy = 0.00038527262
  estimated relative force accuracy = 1.160237e-06
  using double precision KISS FFT
  3d grid and FFT values/proc = 554040 378675
  generated 45 of 45 mixed pair_coeff terms from arithmetic mixing rule
Per MPI rank memory allocation (min/avg/max) = 24.35 | 35.11 | 63.71 Mbytes
Step v_ftemp PotEng f_swp[1] f_swp[2] 
    4860        29524   -785699.06            0            0 
    4900        29524   -785690.97           40           19 
    5000        29524   -786021.02          140           67 
    5100        29524   -785704.04          240          117 
    5200        29524   -786065.13          340          159 
    5300        29524   -786047.97          440          209 
    5400        29524   -785840.09          540          260 
    5500        29524   -785809.45          640          315 
    5600        29524   -785731.89          740          368 
    5700        29524   -786346.06          840          414 
    5800        29524   -785952.34          940          468 
    5832        29524   -785857.93          972          487 
Loop time of 263.507 on 4 procs for 972 steps with 4311 atoms

Performance: 0.159 ns/day, 150.610 hours/ns, 3.689 timesteps/s
94.3% CPU use with 4 MPI tasks x no OpenMP threads

MPI task timing breakdown:
Section |  min time  |  avg time  |  max time  |%varavg| %total
---------------------------------------------------------------
Pair    | 2.8703     | 7.4259     | 10.96      | 125.0 |  2.82
Bond    | 0.0013674  | 0.0029647  | 0.0075548  |   4.9 |  0.00
Kspace  | 60.524     | 64.062     | 68.618     |  42.6 | 24.31
Neigh   | 17.153     | 17.182     | 17.224     |   0.7 |  6.52
Comm    | 0.48561    | 0.54596    | 0.58381    |   5.5 |  0.21
Output  | 0.00024736 | 0.00060102 | 0.0014718  |   0.0 |  0.00
Modify  | 174.25     | 174.26     | 174.28     |   0.1 | 66.13
Other   |            | 0.02671    |            |       |  0.01

Nlocal:        1077.75 ave        1494 max         657 min
Histogram: 1 1 0 0 0 0 0 0 1 1
Nghost:        8908.25 ave       11934 max        5689 min
Histogram: 1 1 0 0 0 0 0 0 0 2
Neighs:         536710 ave      798273 max      198736 min
Histogram: 1 0 0 1 0 0 0 0 0 2

Total # of neighbors = 2146840
Ave neighs/atom = 497.99119
Ave special neighs/atom = 0.029227557
Neighbor list builds = 1944
Dangerous builds = 0

  unfix swp
  thermo_style custom step temp pe

next temp
jump SELF minimize_temp

  variable ftemp equal v_temp

  # Electrostatic relaxation
  fix swp swpFe atom/swap 1 1 ${rand} ${temp} ke no types 6 7
  fix swp swpFe atom/swap 1 1 1165944 ${temp} ke no types 6 7
  fix swp swpFe atom/swap 1 1 1165944 26571 ke no types 6 7
  thermo 100
  thermo_style custom step v_ftemp pe f_swp[1] f_swp[2]
  run ${nsteps}
  run 972
WARNING: No fixes with time integration, atoms won't move (../verlet.cpp:60)
PPPM initialization ...
  using 12-bit tables for long-range coulomb (../kspace.cpp:340)
  G vector (1/distance) = 0.29499995
  grid = 45 45 250
  stencil order = 5
  estimated absolute RMS force accuracy = 0.00038527262
  estimated relative force accuracy = 1.160237e-06
  using double precision KISS FFT
  3d grid and FFT values/proc = 554040 378675
  generated 45 of 45 mixed pair_coeff terms from arithmetic mixing rule
Per MPI rank memory allocation (min/avg/max) = 24.35 | 35.11 | 63.71 Mbytes
Step v_ftemp PotEng f_swp[1] f_swp[2] 
    5832        26571   -785857.93            0            0 
    5900        26571   -786433.89           68           33 
    6000        26571    -785703.6          168           85 
    6100        26571   -786182.12          268          131 
    6200        26571   -786050.23          368          172 
    6300        26571   -785667.98          468          227 
    6400        26571   -786130.22          568          283 
    6500        26571   -786495.83          668          322 
    6600        26571   -785810.94          768          371 
    6700        26571   -786023.56          868          416 
    6800        26571    -786249.1          968          460 
    6804        26571   -786108.34          972          464 
Loop time of 267.543 on 4 procs for 972 steps with 4311 atoms

Performance: 0.157 ns/day, 152.916 hours/ns, 3.633 timesteps/s
93.9% CPU use with 4 MPI tasks x no OpenMP threads

MPI task timing breakdown:
Section |  min time  |  avg time  |  max time  |%varavg| %total
---------------------------------------------------------------
Pair    | 2.9599     | 7.561      | 11.162     | 126.0 |  2.83
Bond    | 0.0018958  | 0.0036224  | 0.0084767  |   4.7 |  0.00
Kspace  | 63.715     | 67.318     | 71.919     |  42.2 | 25.16
Neigh   | 16.902     | 16.927     | 16.962     |   0.6 |  6.33
Comm    | 0.43752    | 0.48184    | 0.51767    |   4.8 |  0.18
Output  | 0.00021128 | 0.00056586 | 0.001456   |   0.0 |  0.00
Modify  | 175.21     | 175.23     | 175.24     |   0.1 | 65.49
Other   |            | 0.02624    |            |       |  0.01

Nlocal:        1077.75 ave        1494 max         657 min
Histogram: 1 1 0 0 0 0 0 0 1 1
Nghost:        8908.25 ave       11934 max        5689 min
Histogram: 1 1 0 0 0 0 0 0 0 2
Neighs:         536710 ave      798273 max      198736 min
Histogram: 1 0 0 1 0 0 0 0 0 2

Total # of neighbors = 2146840
Ave neighs/atom = 497.99119
Ave special neighs/atom = 0.029227557
Neighbor list builds = 1944
Dangerous builds = 0

  unfix swp
  thermo_style custom step temp pe

next temp
jump SELF minimize_temp

  variable ftemp equal v_temp

  # Electrostatic relaxation
  fix swp swpFe atom/swap 1 1 ${rand} ${temp} ke no types 6 7
  fix swp swpFe atom/swap 1 1 3631288 ${temp} ke no types 6 7
  fix swp swpFe atom/swap 1 1 3631288 23913 ke no types 6 7
  thermo 100
  thermo_style custom step v_ftemp pe f_swp[1] f_swp[2]
  run ${nsteps}
  run 972
WARNING: No fixes with time integration, atoms won't move (../verlet.cpp:60)
PPPM initialization ...
  using 12-bit tables for long-range coulomb (../kspace.cpp:340)
  G vector (1/distance) = 0.29499995
  grid = 45 45 250
  stencil order = 5
  estimated absolute RMS force accuracy = 0.00038527262
  estimated relative force accuracy = 1.160237e-06
  using double precision KISS FFT
  3d grid and FFT values/proc = 554040 378675
  generated 45 of 45 mixed pair_coeff terms from arithmetic mixing rule
Per MPI rank memory allocation (min/avg/max) = 24.35 | 35.11 | 63.71 Mbytes
Step v_ftemp PotEng f_swp[1] f_swp[2] 
    6804        23913   -786108.34            0            0 
    6900        23913   -786072.05           96           50 
    7000        23913   -785965.66          196           94 
    7100        23913   -785707.81          296          145 
    7200        23913   -786152.79          396          190 
    7300        23913   -786368.16          496          235 
    7400        23913    -786226.4          596          275 
    7500        23913   -786228.39          696          320 
    7600        23913   -786286.77          796          366 
    7700        23913   -786314.16          896          406 
    7776        23913    -786315.2          972          428 
Loop time of 269.376 on 4 procs for 972 steps with 4311 atoms

Performance: 0.156 ns/day, 153.964 hours/ns, 3.608 timesteps/s
93.9% CPU use with 4 MPI tasks x no OpenMP threads

MPI task timing breakdown:
Section |  min time  |  avg time  |  max time  |%varavg| %total
---------------------------------------------------------------
Pair    | 2.8839     | 7.4882     | 11.055     | 126.5 |  2.78
Bond    | 0.0018141  | 0.0034863  | 0.0079098  |   4.3 |  0.00
Kspace  | 64.417     | 67.987     | 72.592     |  42.0 | 25.24
Neigh   | 16.85      | 16.874     | 16.91      |   0.6 |  6.26
Comm    | 0.40618    | 0.45099    | 0.48085    |   4.7 |  0.17
Output  | 0.00018922 | 0.00049804 | 0.0012912  |   0.0 |  0.00
Modify  | 176.54     | 176.55     | 176.56     |   0.1 | 65.54
Other   |            | 0.02306    |            |       |  0.01

Nlocal:        1077.75 ave        1494 max         657 min
Histogram: 1 1 0 0 0 0 0 0 1 1
Nghost:        8908.25 ave       11934 max        5689 min
Histogram: 1 1 0 0 0 0 0 0 0 2
Neighs:         536710 ave      798273 max      198736 min
Histogram: 1 0 0 1 0 0 0 0 0 2

Total # of neighbors = 2146840
Ave neighs/atom = 497.99119
Ave special neighs/atom = 0.029227557
Neighbor list builds = 1944
Dangerous builds = 0

  unfix swp
  thermo_style custom step temp pe

next temp
jump SELF minimize_temp

  variable ftemp equal v_temp

  # Electrostatic relaxation
  fix swp swpFe atom/swap 1 1 ${rand} ${temp} ke no types 6 7
  fix swp swpFe atom/swap 1 1 7952271 ${temp} ke no types 6 7
  fix swp swpFe atom/swap 1 1 7952271 21521 ke no types 6 7
  thermo 100
  thermo_style custom step v_ftemp pe f_swp[1] f_swp[2]
  run ${nsteps}
  run 972
WARNING: No fixes with time integration, atoms won't move (../verlet.cpp:60)
PPPM initialization ...
  using 12-bit tables for long-range coulomb (../kspace.cpp:340)
  G vector (1/distance) = 0.29499995
  grid = 45 45 250
  stencil order = 5
  estimated absolute RMS force accuracy = 0.00038527262
  estimated relative force accuracy = 1.160237e-06
  using double precision KISS FFT
  3d grid and FFT values/proc = 554040 378675
  generated 45 of 45 mixed pair_coeff terms from arithmetic mixing rule
Per MPI rank memory allocation (min/avg/max) = 24.35 | 35.11 | 63.71 Mbytes
Step v_ftemp PotEng f_swp[1] f_swp[2] 
    7776        21521    -786315.2            0            0 
    7800        21521   -786101.66           24           13 
    7900        21521   -786135.23          124           51 
    8000        21521   -786369.23          224           92 
    8100        21521   -786250.56          324          133 
    8200        21521   -786506.96          424          179 
    8300        21521   -786210.93          524          215 
    8400        21521   -786141.55          624          254 
    8500        21521   -786177.13          724          289 
    8600        21521   -785815.63          824          329 
    8700        21521   -786259.42          924          368 
    8748        21521   -786439.04          972          396 
Loop time of 269.321 on 4 procs for 972 steps with 4311 atoms

Performance: 0.156 ns/day, 153.933 hours/ns, 3.609 timesteps/s
94.1% CPU use with 4 MPI tasks x no OpenMP threads

MPI task timing breakdown:
Section |  min time  |  avg time  |  max time  |%varavg| %total
---------------------------------------------------------------
Pair    | 2.8257     | 7.3708     | 10.938     | 125.2 |  2.74
Bond    | 0.0013266  | 0.0028842  | 0.0070296  |   4.5 |  0.00
Kspace  | 64.68      | 68.25      | 72.797     |  41.2 | 25.34
Neigh   | 17.17      | 17.198     | 17.239     |   0.7 |  6.39
Comm    | 0.47411    | 0.52866    | 0.56512    |   5.2 |  0.20
Output  | 0.00028794 | 0.00072178 | 0.001784   |   0.0 |  0.00
Modify  | 175.93     | 175.95     | 175.96     |   0.1 | 65.33
Other   |            | 0.02455    |            |       |  0.01

Nlocal:        1077.75 ave        1494 max         657 min
Histogram: 1 1 0 0 0 0 0 0 1 1
Nghost:        8908.25 ave       11934 max        5689 min
Histogram: 1 1 0 0 0 0 0 0 0 2
Neighs:         536710 ave      798273 max      198736 min
Histogram: 1 0 0 1 0 0 0 0 0 2

Total # of neighbors = 2146840
Ave neighs/atom = 497.99119
Ave special neighs/atom = 0.029227557
Neighbor list builds = 1944
Dangerous builds = 0

  unfix swp
  thermo_style custom step temp pe

next temp
jump SELF minimize_temp

  variable ftemp equal v_temp

  # Electrostatic relaxation
  fix swp swpFe atom/swap 1 1 ${rand} ${temp} ke no types 6 7
  fix swp swpFe atom/swap 1 1 185888 ${temp} ke no types 6 7
  fix swp swpFe atom/swap 1 1 185888 19368 ke no types 6 7
  thermo 100
  thermo_style custom step v_ftemp pe f_swp[1] f_swp[2]
  run ${nsteps}
  run 972
WARNING: No fixes with time integration, atoms won't move (../verlet.cpp:60)
PPPM initialization ...
  using 12-bit tables for long-range coulomb (../kspace.cpp:340)
  G vector (1/distance) = 0.29499995
  grid = 45 45 250
  stencil order = 5
  estimated absolute RMS force accuracy = 0.00038527262
  estimated relative force accuracy = 1.160237e-06
  using double precision KISS FFT
  3d grid and FFT values/proc = 554040 378675
  generated 45 of 45 mixed pair_coeff terms from arithmetic mixing rule
Per MPI rank memory allocation (min/avg/max) = 24.35 | 35.11 | 63.71 Mbytes
Step v_ftemp PotEng f_swp[1] f_swp[2] 
    8748        19368   -786439.04            0            0 
    8800        19368   -786307.38           52           20 
    8900        19368   -786089.01          152           63 
    9000        19368   -786243.38          252          103 
    9100        19368   -786458.37          352          138 
    9200        19368   -786491.32          452          172 
    9300        19368   -786063.15          552          208 
    9400        19368   -786325.95          652          246 
    9500        19368   -786378.95          752          278 
    9600        19368   -786237.93          852          314 
    9700        19368   -785932.06          952          354 
    9720        19368   -785903.75          972          360 
Loop time of 263.571 on 4 procs for 972 steps with 4311 atoms

Performance: 0.159 ns/day, 150.647 hours/ns, 3.688 timesteps/s
94.3% CPU use with 4 MPI tasks x no OpenMP threads

MPI task timing breakdown:
Section |  min time  |  avg time  |  max time  |%varavg| %total
---------------------------------------------------------------
Pair    | 2.8689     | 7.4628     | 11.021     | 125.3 |  2.83
Bond    | 0.0014451  | 0.0031328  | 0.0078271  |   4.8 |  0.00
Kspace  | 62         | 65.563     | 70.159     |  42.3 | 24.87
Neigh   | 17.159     | 17.187     | 17.23      |   0.7 |  6.52
Comm    | 0.48676    | 0.54438    | 0.58163    |   5.4 |  0.21
Output  | 0.00023872 | 0.00054594 | 0.001282   |   0.0 |  0.00
Modify  | 172.77     | 172.78     | 172.8      |   0.1 | 65.55
Other   |            | 0.02815    |            |       |  0.01

Nlocal:        1077.75 ave        1494 max         657 min
Histogram: 1 1 0 0 0 0 0 0 1 1
Nghost:        8908.25 ave       11934 max        5689 min
Histogram: 1 1 0 0 0 0 0 0 0 2
Neighs:         536710 ave      798273 max      198736 min
Histogram: 1 0 0 1 0 0 0 0 0 2

Total # of neighbors = 2146840
Ave neighs/atom = 497.99119
Ave special neighs/atom = 0.029227557
Neighbor list builds = 1944
Dangerous builds = 0

  unfix swp
  thermo_style custom step temp pe

next temp
jump SELF minimize_temp

  variable ftemp equal v_temp

  # Electrostatic relaxation
  fix swp swpFe atom/swap 1 1 ${rand} ${temp} ke no types 6 7
  fix swp swpFe atom/swap 1 1 7935996 ${temp} ke no types 6 7
  fix swp swpFe atom/swap 1 1 7935996 17431 ke no types 6 7
  thermo 100
  thermo_style custom step v_ftemp pe f_swp[1] f_swp[2]
  run ${nsteps}
  run 972
WARNING: No fixes with time integration, atoms won't move (../verlet.cpp:60)
PPPM initialization ...
  using 12-bit tables for long-range coulomb (../kspace.cpp:340)
  G vector (1/distance) = 0.29499995
  grid = 45 45 250
  stencil order = 5
  estimated absolute RMS force accuracy = 0.00038527262
  estimated relative force accuracy = 1.160237e-06
  using double precision KISS FFT
  3d grid and FFT values/proc = 554040 378675
  generated 45 of 45 mixed pair_coeff terms from arithmetic mixing rule
Per MPI rank memory allocation (min/avg/max) = 24.35 | 35.11 | 63.71 Mbytes
Step v_ftemp PotEng f_swp[1] f_swp[2] 
    9720        17431   -785903.75            0            0 
    9800        17431   -786177.16           80           27 
    9900        17431   -786307.63          180           68 
   10000        17431   -786345.97          280          109 
   10100        17431   -786471.16          380          139 
   10200        17431   -786434.37          480          174 
   10300        17431   -786426.57          580          207 
   10400        17431   -786347.79          680          243 
   10500        17431   -786132.64          780          281 
   10600        17431   -786436.22          880          311 
   10692        17431   -786440.85          972          345 
Loop time of 269.893 on 4 procs for 972 steps with 4311 atoms

Performance: 0.156 ns/day, 154.260 hours/ns, 3.601 timesteps/s
94.3% CPU use with 4 MPI tasks x no OpenMP threads

MPI task timing breakdown:
Section |  min time  |  avg time  |  max time  |%varavg| %total
---------------------------------------------------------------
Pair    | 2.8367     | 7.362      | 10.923     | 125.2 |  2.73
Bond    | 0.0014496  | 0.0029504  | 0.0072928  |   4.6 |  0.00
Kspace  | 63.883     | 67.447     | 71.974     |  41.4 | 24.99
Neigh   | 17.072     | 17.1       | 17.139     |   0.7 |  6.34
Comm    | 0.46016    | 0.51357    | 0.55177    |   5.3 |  0.19
Output  | 0.00022085 | 0.00053992 | 0.0013168  |   0.0 |  0.00
Modify  | 177.43     | 177.44     | 177.46     |   0.1 | 65.75
Other   |            | 0.02563    |            |       |  0.01

Nlocal:        1077.75 ave        1494 max         657 min
Histogram: 1 1 0 0 0 0 0 0 1 1
Nghost:        8908.25 ave       11934 max        5689 min
Histogram: 1 1 0 0 0 0 0 0 0 2
Neighs:         536710 ave      798273 max      198736 min
Histogram: 1 0 0 1 0 0 0 0 0 2

Total # of neighbors = 2146840
Ave neighs/atom = 497.99119
Ave special neighs/atom = 0.029227557
Neighbor list builds = 1944
Dangerous builds = 0

  unfix swp
  thermo_style custom step temp pe

next temp
jump SELF minimize_temp

  variable ftemp equal v_temp

  # Electrostatic relaxation
  fix swp swpFe atom/swap 1 1 ${rand} ${temp} ke no types 6 7
  fix swp swpFe atom/swap 1 1 473855 ${temp} ke no types 6 7
  fix swp swpFe atom/swap 1 1 473855 15687 ke no types 6 7
  thermo 100
  thermo_style custom step v_ftemp pe f_swp[1] f_swp[2]
  run ${nsteps}
  run 972
WARNING: No fixes with time integration, atoms won't move (../verlet.cpp:60)
PPPM initialization ...
  using 12-bit tables for long-range coulomb (../kspace.cpp:340)
  G vector (1/distance) = 0.29499995
  grid = 45 45 250
  stencil order = 5
  estimated absolute RMS force accuracy = 0.00038527262
  estimated relative force accuracy = 1.160237e-06
  using double precision KISS FFT
  3d grid and FFT values/proc = 554040 378675
  generated 45 of 45 mixed pair_coeff terms from arithmetic mixing rule
Per MPI rank memory allocation (min/avg/max) = 24.35 | 35.11 | 63.71 Mbytes
Step v_ftemp PotEng f_swp[1] f_swp[2] 
   10692        15687   -786440.85            0            0 
   10700        15687   -786325.92            8            2 
   10800        15687   -786396.29          108           36 
   10900        15687   -786628.32          208           65 
   11000        15687   -786669.01          308           91 
   11100        15687   -786511.28          408          115 
   11200        15687    -786463.4          508          147 
   11300        15687   -786546.75          608          175 
   11400        15687   -786401.57          708          195 
   11500        15687   -786612.41          808          227 
   11600        15687   -786417.41          908          250 
   11664        15687   -786608.68          972          266 
Loop time of 266.712 on 4 procs for 972 steps with 4311 atoms

Performance: 0.157 ns/day, 152.441 hours/ns, 3.644 timesteps/s
94.2% CPU use with 4 MPI tasks x no OpenMP threads

MPI task timing breakdown:
Section |  min time  |  avg time  |  max time  |%varavg| %total
---------------------------------------------------------------
Pair    | 2.883      | 7.4398     | 10.956     | 125.4 |  2.79
Bond    | 0.0015057  | 0.0031321  | 0.0076603  |   4.7 |  0.00
Kspace  | 62.997     | 66.516     | 71.074     |  42.0 | 24.94
Neigh   | 16.889     | 16.917     | 16.956     |   0.7 |  6.34
Comm    | 0.44811    | 0.50026    | 0.53604    |   5.1 |  0.19
Output  | 0.00023012 | 0.00054301 | 0.0013009  |   0.0 |  0.00
Modify  | 175.3      | 175.31     | 175.32     |   0.1 | 65.73
Other   |            | 0.02641    |            |       |  0.01

Nlocal:        1077.75 ave        1494 max         657 min
Histogram: 1 1 0 0 0 0 0 0 1 1
Nghost:        8908.25 ave       11934 max        5689 min
Histogram: 1 1 0 0 0 0 0 0 0 2
Neighs:         536710 ave      798273 max      198736 min
Histogram: 1 0 0 1 0 0 0 0 0 2

Total # of neighbors = 2146840
Ave neighs/atom = 497.99119
Ave special neighs/atom = 0.029227557
Neighbor list builds = 1944
Dangerous builds = 0

  unfix swp
  thermo_style custom step temp pe

next temp
jump SELF minimize_temp

  variable ftemp equal v_temp

  # Electrostatic relaxation
  fix swp swpFe atom/swap 1 1 ${rand} ${temp} ke no types 6 7
  fix swp swpFe atom/swap 1 1 7716369 ${temp} ke no types 6 7
  fix swp swpFe atom/swap 1 1 7716369 14118 ke no types 6 7
  thermo 100
  thermo_style custom step v_ftemp pe f_swp[1] f_swp[2]
  run ${nsteps}
  run 972
WARNING: No fixes with time integration, atoms won't move (../verlet.cpp:60)
PPPM initialization ...
  using 12-bit tables for long-range coulomb (../kspace.cpp:340)
  G vector (1/distance) = 0.29499995
  grid = 45 45 250
  stencil order = 5
  estimated absolute RMS force accuracy = 0.00038527262
  estimated relative force accuracy = 1.160237e-06
  using double precision KISS FFT
  3d grid and FFT values/proc = 554040 378675
  generated 45 of 45 mixed pair_coeff terms from arithmetic mixing rule
Per MPI rank memory allocation (min/avg/max) = 24.35 | 35.11 | 63.71 Mbytes
Step v_ftemp PotEng f_swp[1] f_swp[2] 
   11664        14118   -786608.68            0            0 
   11700        14118   -786568.35           36           10 
   11800        14118   -786541.25          136           39 
   11900        14118   -786419.79          236           69 
   12000        14118   -786374.41          336           97 
   12100        14118   -786490.41          436          131 
   12200        14118   -786327.39          536          169 
   12300        14118   -786537.64          636          197 
   12400        14118    -786470.2          736          227 
   12500        14118   -786583.44          836          262 
   12600        14118   -786523.88          936          288 
   12636        14118   -786623.33          972          295 
Loop time of 263.37 on 4 procs for 972 steps with 4311 atoms

Performance: 0.159 ns/day, 150.532 hours/ns, 3.691 timesteps/s
94.5% CPU use with 4 MPI tasks x no OpenMP threads

MPI task timing breakdown:
Section |  min time  |  avg time  |  max time  |%varavg| %total
---------------------------------------------------------------
Pair    | 2.8565     | 7.4225     | 10.942     | 125.4 |  2.82
Bond    | 0.0012151  | 0.0031379  | 0.0080014  |   5.0 |  0.00
Kspace  | 61.487     | 65.012     | 69.576     |  42.4 | 24.68
Neigh   | 16.953     | 16.982     | 17.025     |   0.7 |  6.45
Comm    | 0.46946    | 0.53288    | 0.57268    |   5.9 |  0.20
Output  | 0.00024232 | 0.00054918 | 0.0012511  |   0.0 |  0.00
Modify  | 173.38     | 173.39     | 173.4      |   0.1 | 65.84
Other   |            | 0.0268     |            |       |  0.01

Nlocal:        1077.75 ave        1494 max         657 min
Histogram: 1 1 0 0 0 0 0 0 1 1
Nghost:        8908.25 ave       11934 max        5689 min
Histogram: 1 1 0 0 0 0 0 0 0 2
Neighs:         536710 ave      798273 max      198736 min
Histogram: 1 0 0 1 0 0 0 0 0 2

Total # of neighbors = 2146840
Ave neighs/atom = 497.99119
Ave special neighs/atom = 0.029227557
Neighbor list builds = 1944
Dangerous builds = 0

  unfix swp
  thermo_style custom step temp pe

next temp
jump SELF minimize_temp

  variable ftemp equal v_temp

  # Electrostatic relaxation
  fix swp swpFe atom/swap 1 1 ${rand} ${temp} ke no types 6 7
  fix swp swpFe atom/swap 1 1 8487327 ${temp} ke no types 6 7
  fix swp swpFe atom/swap 1 1 8487327 12706 ke no types 6 7
  thermo 100
  thermo_style custom step v_ftemp pe f_swp[1] f_swp[2]
  run ${nsteps}
  run 972
WARNING: No fixes with time integration, atoms won't move (../verlet.cpp:60)
PPPM initialization ...
  using 12-bit tables for long-range coulomb (../kspace.cpp:340)
  G vector (1/distance) = 0.29499995
  grid = 45 45 250
  stencil order = 5
  estimated absolute RMS force accuracy = 0.00038527262
  estimated relative force accuracy = 1.160237e-06
  using double precision KISS FFT
  3d grid and FFT values/proc = 554040 378675
  generated 45 of 45 mixed pair_coeff terms from arithmetic mixing rule
Per MPI rank memory allocation (min/avg/max) = 24.35 | 35.11 | 63.71 Mbytes
Step v_ftemp PotEng f_swp[1] f_swp[2] 
   12636        12706   -786623.33            0            0 
   12700        12706   -786491.16           64           23 
   12800        12706   -786675.62          164           55 
   12900        12706   -786646.42          264           82 
   13000        12706   -786754.74          364          109 
   13100        12706   -786702.37          464          138 
   13200        12706   -786597.53          564          157 
   13300        12706   -786611.13          664          185 
   13400        12706    -786454.5          764          210 
   13500        12706   -786518.98          864          240 
   13600        12706   -786587.67          964          262 
   13608        12706   -786689.28          972          264 
Loop time of 263.504 on 4 procs for 972 steps with 4311 atoms

Performance: 0.159 ns/day, 150.608 hours/ns, 3.689 timesteps/s
94.1% CPU use with 4 MPI tasks x no OpenMP threads

MPI task timing breakdown:
Section |  min time  |  avg time  |  max time  |%varavg| %total
---------------------------------------------------------------
Pair    | 2.8527     | 7.3933     | 10.919     | 125.1 |  2.81
Bond    | 0.0012539  | 0.0037248  | 0.0104     |   6.3 |  0.00
Kspace  | 61.511     | 65.042     | 69.579     |  42.2 | 24.68
Neigh   | 16.903     | 16.933     | 16.978     |   0.7 |  6.43
Comm    | 0.49094    | 0.5565     | 0.59588    |   5.7 |  0.21
Output  | 0.0002401  | 0.00065484 | 0.0017141  |   0.0 |  0.00
Modify  | 173.54     | 173.55     | 173.57     |   0.1 | 65.86
Other   |            | 0.02665    |            |       |  0.01

Nlocal:        1077.75 ave        1494 max         657 min
Histogram: 1 1 0 0 0 0 0 0 1 1
Nghost:        8908.25 ave       11934 max        5689 min
Histogram: 1 1 0 0 0 0 0 0 0 2
Neighs:         536710 ave      798273 max      198736 min
Histogram: 1 0 0 1 0 0 0 0 0 2

Total # of neighbors = 2146840
Ave neighs/atom = 497.99119
Ave special neighs/atom = 0.029227557
Neighbor list builds = 1944
Dangerous builds = 0

  unfix swp
  thermo_style custom step temp pe

next temp
jump SELF minimize_temp

  variable ftemp equal v_temp

  # Electrostatic relaxation
  fix swp swpFe atom/swap 1 1 ${rand} ${temp} ke no types 6 7
  fix swp swpFe atom/swap 1 1 8505477 ${temp} ke no types 6 7
  fix swp swpFe atom/swap 1 1 8505477 11435 ke no types 6 7
  thermo 100
  thermo_style custom step v_ftemp pe f_swp[1] f_swp[2]
  run ${nsteps}
  run 972
WARNING: No fixes with time integration, atoms won't move (../verlet.cpp:60)
PPPM initialization ...
  using 12-bit tables for long-range coulomb (../kspace.cpp:340)
  G vector (1/distance) = 0.29499995
  grid = 45 45 250
  stencil order = 5
  estimated absolute RMS force accuracy = 0.00038527262
  estimated relative force accuracy = 1.160237e-06
  using double precision KISS FFT
  3d grid and FFT values/proc = 554040 378675
  generated 45 of 45 mixed pair_coeff terms from arithmetic mixing rule
Per MPI rank memory allocation (min/avg/max) = 24.35 | 35.11 | 63.71 Mbytes
Step v_ftemp PotEng f_swp[1] f_swp[2] 
   13608        11435   -786689.28            0            0 
   13700        11435   -786745.97           92           19 
   13800        11435   -786620.05          192           41 
   13900        11435   -786734.66          292           56 
   14000        11435   -786622.12          392           78 
   14100        11435   -786705.81          492           95 
   14200        11435   -786518.16          592          124 
   14300        11435   -786633.76          692          147 
   14400        11435   -786675.87          792          166 
   14500        11435   -786780.25          892          183 
   14580        11435   -786695.19          972          201 
Loop time of 273.127 on 4 procs for 972 steps with 4311 atoms

Performance: 0.154 ns/day, 156.109 hours/ns, 3.559 timesteps/s
93.6% CPU use with 4 MPI tasks x no OpenMP threads

MPI task timing breakdown:
Section |  min time  |  avg time  |  max time  |%varavg| %total
---------------------------------------------------------------
Pair    | 2.8144     | 7.4868     | 11.15      | 127.9 |  2.74
Bond    | 0.0015669  | 0.0032162  | 0.007269   |   4.2 |  0.00
Kspace  | 65.401     | 69.068     | 73.74      |  42.1 | 25.29
Neigh   | 16.667     | 16.694     | 16.733     |   0.7 |  6.11
Comm    | 0.41013    | 0.46038    | 0.49292    |   5.1 |  0.17
Output  | 0.00020786 | 0.00052869 | 0.0012174  |   0.0 |  0.00
Modify  | 179.38     | 179.39     | 179.4      |   0.1 | 65.68
Other   |            | 0.0222     |            |       |  0.01

Nlocal:        1077.75 ave        1494 max         657 min
Histogram: 1 1 0 0 0 0 0 0 1 1
Nghost:        8908.25 ave       11934 max        5689 min
Histogram: 1 1 0 0 0 0 0 0 0 2
Neighs:         536710 ave      798273 max      198736 min
Histogram: 1 0 0 1 0 0 0 0 0 2

Total # of neighbors = 2146840
Ave neighs/atom = 497.99119
Ave special neighs/atom = 0.029227557
Neighbor list builds = 1944
Dangerous builds = 0

  unfix swp
  thermo_style custom step temp pe

next temp
jump SELF minimize_temp

  variable ftemp equal v_temp

  # Electrostatic relaxation
  fix swp swpFe atom/swap 1 1 ${rand} ${temp} ke no types 6 7
  fix swp swpFe atom/swap 1 1 980195 ${temp} ke no types 6 7
  fix swp swpFe atom/swap 1 1 980195 10291 ke no types 6 7
  thermo 100
  thermo_style custom step v_ftemp pe f_swp[1] f_swp[2]
  run ${nsteps}
  run 972
WARNING: No fixes with time integration, atoms won't move (../verlet.cpp:60)
PPPM initialization ...
  using 12-bit tables for long-range coulomb (../kspace.cpp:340)
  G vector (1/distance) = 0.29499995
  grid = 45 45 250
  stencil order = 5
  estimated absolute RMS force accuracy = 0.00038527262
  estimated relative force accuracy = 1.160237e-06
  using double precision KISS FFT
  3d grid and FFT values/proc = 554040 378675
  generated 45 of 45 mixed pair_coeff terms from arithmetic mixing rule
Per MPI rank memory allocation (min/avg/max) = 24.35 | 35.11 | 63.71 Mbytes
Step v_ftemp PotEng f_swp[1] f_swp[2] 
   14580        10291   -786695.19            0            0 
   14600        10291   -786780.83           20            1 
   14700        10291   -786504.57          120           19 
   14800        10291   -786504.23          220           40 
   14900        10291   -786682.33          320           58 
   15000        10291   -786823.57          420           83 
   15100        10291   -786772.45          520           97 
   15200        10291   -786700.01          620          117 
   15300        10291   -786798.03          720          130 
   15400        10291   -786672.43          820          160 
   15500        10291   -786636.77          920          183 
   15552        10291   -786744.43          972          191 
Loop time of 263.616 on 4 procs for 972 steps with 4311 atoms

Performance: 0.159 ns/day, 150.672 hours/ns, 3.687 timesteps/s
94.3% CPU use with 4 MPI tasks x no OpenMP threads

MPI task timing breakdown:
Section |  min time  |  avg time  |  max time  |%varavg| %total
---------------------------------------------------------------
Pair    | 2.8636     | 7.4321     | 10.962     | 125.2 |  2.82
Bond    | 0.0014077  | 0.0032072  | 0.0081201  |   5.0 |  0.00
Kspace  | 61.716     | 65.249     | 69.818     |  42.3 | 24.75
Neigh   | 17.087     | 17.117     | 17.16      |   0.7 |  6.49
Comm    | 0.48464    | 0.54334    | 0.57998    |   5.4 |  0.21
Output  | 0.00029303 | 0.0005942  | 0.0013408  |   0.0 |  0.00
Modify  | 173.23     | 173.24     | 173.26     |   0.1 | 65.72
Other   |            | 0.02622    |            |       |  0.01

Nlocal:        1077.75 ave        1494 max         657 min
Histogram: 1 1 0 0 0 0 0 0 1 1
Nghost:        8908.25 ave       11934 max        5689 min
Histogram: 1 1 0 0 0 0 0 0 0 2
Neighs:         536710 ave      798273 max      198736 min
Histogram: 1 0 0 1 0 0 0 0 0 2

Total # of neighbors = 2146840
Ave neighs/atom = 497.99119
Ave special neighs/atom = 0.029227557
Neighbor list builds = 1944
Dangerous builds = 0

  unfix swp
  thermo_style custom step temp pe

next temp
jump SELF minimize_temp

  variable ftemp equal v_temp

  # Electrostatic relaxation
  fix swp swpFe atom/swap 1 1 ${rand} ${temp} ke no types 6 7
  fix swp swpFe atom/swap 1 1 2065900 ${temp} ke no types 6 7
  fix swp swpFe atom/swap 1 1 2065900 9261 ke no types 6 7
  thermo 100
  thermo_style custom step v_ftemp pe f_swp[1] f_swp[2]
  run ${nsteps}
  run 972
WARNING: No fixes with time integration, atoms won't move (../verlet.cpp:60)
PPPM initialization ...
  using 12-bit tables for long-range coulomb (../kspace.cpp:340)
  G vector (1/distance) = 0.29499995
  grid = 45 45 250
  stencil order = 5
  estimated absolute RMS force accuracy = 0.00038527262
  estimated relative force accuracy = 1.160237e-06
  using double precision KISS FFT
  3d grid and FFT values/proc = 554040 378675
  generated 45 of 45 mixed pair_coeff terms from arithmetic mixing rule
Per MPI rank memory allocation (min/avg/max) = 24.35 | 35.11 | 63.71 Mbytes
Step v_ftemp PotEng f_swp[1] f_swp[2] 
   15552         9261   -786744.43            0            0 
   15600         9261   -786754.78           48            7 
   15700         9261   -786559.32          148           24 
   15800         9261   -786644.23          248           47 
   15900         9261   -786751.62          348           64 
   16000         9261   -786767.85          448           74 
   16100         9261   -786778.06          548           90 
   16200         9261   -786692.87          648          103 
   16300         9261   -786646.89          748          121 
   16400         9261   -786814.32          848          133 
   16500         9261   -786835.96          948          147 
   16524         9261    -786810.8          972          151 
Loop time of 266.607 on 4 procs for 972 steps with 4311 atoms

Performance: 0.157 ns/day, 152.382 hours/ns, 3.646 timesteps/s
94.1% CPU use with 4 MPI tasks x no OpenMP threads

MPI task timing breakdown:
Section |  min time  |  avg time  |  max time  |%varavg| %total
---------------------------------------------------------------
Pair    | 2.8679     | 7.3708     | 10.878     | 124.6 |  2.76
Bond    | 0.0012797  | 0.0030363  | 0.0074963  |   4.7 |  0.00
Kspace  | 63.284     | 66.795     | 71.298     |  41.4 | 25.05
Neigh   | 16.931     | 16.959     | 17         |   0.7 |  6.36
Comm    | 0.46258    | 0.51804    | 0.55378    |   5.2 |  0.19
Output  | 0.00021668 | 0.00052216 | 0.0012676  |   0.0 |  0.00
Modify  | 174.92     | 174.94     | 174.95     |   0.1 | 65.62
Other   |            | 0.0256     |            |       |  0.01

Nlocal:        1077.75 ave        1494 max         657 min
Histogram: 1 1 0 0 0 0 0 0 1 1
Nghost:        8908.25 ave       11934 max        5689 min
Histogram: 1 1 0 0 0 0 0 0 0 2
Neighs:         536710 ave      798273 max      198736 min
Histogram: 1 0 0 1 0 0 0 0 0 2

Total # of neighbors = 2146840
Ave neighs/atom = 497.99119
Ave special neighs/atom = 0.029227557
Neighbor list builds = 1944
Dangerous builds = 0

  unfix swp
  thermo_style custom step temp pe

next temp
jump SELF minimize_temp

  variable ftemp equal v_temp

  # Electrostatic relaxation
  fix swp swpFe atom/swap 1 1 ${rand} ${temp} ke no types 6 7
  fix swp swpFe atom/swap 1 1 5185835 ${temp} ke no types 6 7
  fix swp swpFe atom/swap 1 1 5185835 8334 ke no types 6 7
  thermo 100
  thermo_style custom step v_ftemp pe f_swp[1] f_swp[2]
  run ${nsteps}
  run 972
WARNING: No fixes with time integration, atoms won't move (../verlet.cpp:60)
PPPM initialization ...
  using 12-bit tables for long-range coulomb (../kspace.cpp:340)
  G vector (1/distance) = 0.29499995
  grid = 45 45 250
  stencil order = 5
  estimated absolute RMS force accuracy = 0.00038527262
  estimated relative force accuracy = 1.160237e-06
  using double precision KISS FFT
  3d grid and FFT values/proc = 554040 378675
  generated 45 of 45 mixed pair_coeff terms from arithmetic mixing rule
Per MPI rank memory allocation (min/avg/max) = 24.35 | 35.11 | 63.71 Mbytes
Step v_ftemp PotEng f_swp[1] f_swp[2] 
   16524         8334    -786810.8            0            0 
   16600         8334   -786687.32           76           12 
   16700         8334   -786734.92          176           30 
   16800         8334   -786798.36          276           51 
   16900         8334   -786871.02          376           68 
   17000         8334   -786832.94          476           88 
   17100         8334   -786855.21          576           99 
   17200         8334   -786744.61          676          108 
   17300         8334   -786803.49          776          119 
   17400         8334   -786708.44          876          136 
   17496         8334    -786687.1          972          155 
Loop time of 268.692 on 4 procs for 972 steps with 4311 atoms

Performance: 0.156 ns/day, 153.573 hours/ns, 3.618 timesteps/s
94.1% CPU use with 4 MPI tasks x no OpenMP threads

MPI task timing breakdown:
Section |  min time  |  avg time  |  max time  |%varavg| %total
---------------------------------------------------------------
Pair    | 2.8135     | 7.3184     | 10.85      | 124.7 |  2.72
Bond    | 0.0011674  | 0.0027387  | 0.0071335  |   4.9 |  0.00
Kspace  | 63.092     | 66.628     | 71.133     |  41.4 | 24.80
Neigh   | 16.914     | 16.943     | 16.986     |   0.7 |  6.31
Comm    | 0.50077    | 0.56089    | 0.59871    |   5.4 |  0.21
Output  | 0.00024127 | 0.00060776 | 0.0015301  |   0.0 |  0.00
Modify  | 177.2      | 177.21     | 177.23     |   0.1 | 65.95
Other   |            | 0.0264     |            |       |  0.01

Nlocal:        1077.75 ave        1494 max         657 min
Histogram: 1 1 0 0 0 0 0 0 1 1
Nghost:        8908.25 ave       11934 max        5689 min
Histogram: 1 1 0 0 0 0 0 0 0 2
Neighs:         536710 ave      798273 max      198736 min
Histogram: 1 0 0 1 0 0 0 0 0 2

Total # of neighbors = 2146840
Ave neighs/atom = 497.99119
Ave special neighs/atom = 0.029227557
Neighbor list builds = 1944
Dangerous builds = 0

  unfix swp
  thermo_style custom step temp pe

next temp
jump SELF minimize_temp

  variable ftemp equal v_temp

  # Electrostatic relaxation
  fix swp swpFe atom/swap 1 1 ${rand} ${temp} ke no types 6 7
  fix swp swpFe atom/swap 1 1 3359353 ${temp} ke no types 6 7
  fix swp swpFe atom/swap 1 1 3359353 7500 ke no types 6 7
  thermo 100
  thermo_style custom step v_ftemp pe f_swp[1] f_swp[2]
  run ${nsteps}
  run 972
WARNING: No fixes with time integration, atoms won't move (../verlet.cpp:60)
PPPM initialization ...
  using 12-bit tables for long-range coulomb (../kspace.cpp:340)
  G vector (1/distance) = 0.29499995
  grid = 45 45 250
  stencil order = 5
  estimated absolute RMS force accuracy = 0.00038527262
  estimated relative force accuracy = 1.160237e-06
  using double precision KISS FFT
  3d grid and FFT values/proc = 554040 378675
  generated 45 of 45 mixed pair_coeff terms from arithmetic mixing rule
Per MPI rank memory allocation (min/avg/max) = 24.35 | 35.11 | 63.71 Mbytes
Step v_ftemp PotEng f_swp[1] f_swp[2] 
   17496         7500    -786687.1            0            0 
   17500         7500   -786688.89            4            2 
   17600         7500   -786773.55          104           19 
   17700         7500   -786885.92          204           30 
   17800         7500   -786807.83          304           43 
   17900         7500    -786904.7          404           54 
   18000         7500   -786870.03          504           58 
   18100         7500   -786770.36          604           69 
   18200         7500   -786779.88          704           81 
   18300         7500   -786867.47          804           95 
   18400         7500   -786708.92          904          107 
   18468         7500    -786774.2          972          116 
Loop time of 270.56 on 4 procs for 972 steps with 4311 atoms

Performance: 0.155 ns/day, 154.641 hours/ns, 3.593 timesteps/s
94.0% CPU use with 4 MPI tasks x no OpenMP threads

MPI task timing breakdown:
Section |  min time  |  avg time  |  max time  |%varavg| %total
---------------------------------------------------------------
Pair    | 2.8467     | 7.3233     | 10.803     | 123.9 |  2.71
Bond    | 0.0012088  | 0.0029347  | 0.0072279  |   4.6 |  0.00
Kspace  | 64.929     | 68.413     | 72.89      |  40.6 | 25.29
Neigh   | 16.769     | 16.796     | 16.837     |   0.7 |  6.21
Comm    | 0.45927    | 0.51395    | 0.54975    |   5.2 |  0.19
Output  | 0.00023835 | 0.00055387 | 0.0013163  |   0.0 |  0.00
Modify  | 177.47     | 177.49     | 177.5      |   0.1 | 65.60
Other   |            | 0.02459    |            |       |  0.01

Nlocal:        1077.75 ave        1494 max         657 min
Histogram: 1 1 0 0 0 0 0 0 1 1
Nghost:        8908.25 ave       11934 max        5689 min
Histogram: 1 1 0 0 0 0 0 0 0 2
Neighs:         536710 ave      798273 max      198736 min
Histogram: 1 0 0 1 0 0 0 0 0 2

Total # of neighbors = 2146840
Ave neighs/atom = 497.99119
Ave special neighs/atom = 0.029227557
Neighbor list builds = 1944
Dangerous builds = 0

  unfix swp
  thermo_style custom step temp pe

next temp
jump SELF minimize_temp

  variable ftemp equal v_temp

  # Electrostatic relaxation
  fix swp swpFe atom/swap 1 1 ${rand} ${temp} ke no types 6 7
  fix swp swpFe atom/swap 1 1 6806545 ${temp} ke no types 6 7
  fix swp swpFe atom/swap 1 1 6806545 6750 ke no types 6 7
  thermo 100
  thermo_style custom step v_ftemp pe f_swp[1] f_swp[2]
  run ${nsteps}
  run 972
WARNING: No fixes with time integration, atoms won't move (../verlet.cpp:60)
PPPM initialization ...
  using 12-bit tables for long-range coulomb (../kspace.cpp:340)
  G vector (1/distance) = 0.29499995
  grid = 45 45 250
  stencil order = 5
  estimated absolute RMS force accuracy = 0.00038527262
  estimated relative force accuracy = 1.160237e-06
  using double precision KISS FFT
  3d grid and FFT values/proc = 554040 378675
  generated 45 of 45 mixed pair_coeff terms from arithmetic mixing rule
Per MPI rank memory allocation (min/avg/max) = 24.35 | 35.11 | 63.71 Mbytes
Step v_ftemp PotEng f_swp[1] f_swp[2] 
   18468         6750    -786774.2            0            0 
   18500         6750      -786750           32            1 
   18600         6750   -786858.12          132           12 
   18700         6750   -786798.05          232           26 
   18800         6750   -786836.99          332           33 
   18900         6750   -786903.62          432           44 
   19000         6750      -786930          532           57 
   19100         6750   -786915.12          632           64 
   19200         6750    -786834.9          732           80 
   19300         6750   -786791.01          832           93 
   19400         6750   -786883.91          932          101 
   19440         6750   -786877.61          972          102 
Loop time of 270.081 on 4 procs for 972 steps with 4311 atoms

Performance: 0.155 ns/day, 154.368 hours/ns, 3.599 timesteps/s
94.0% CPU use with 4 MPI tasks x no OpenMP threads

MPI task timing breakdown:
Section |  min time  |  avg time  |  max time  |%varavg| %total
---------------------------------------------------------------
Pair    | 2.8515     | 7.4162     | 10.986     | 126.6 |  2.75
Bond    | 0.0011092  | 0.0032135  | 0.0077882  |   4.7 |  0.00
Kspace  | 64.718     | 68.291     | 72.857     |  41.8 | 25.29
Neigh   | 16.826     | 16.853     | 16.892     |   0.7 |  6.24
Comm    | 0.42915    | 0.48112    | 0.51404    |   5.1 |  0.18
Output  | 0.00022098 | 0.000528   | 0.0012793  |   0.0 |  0.00
Modify  | 177        | 177.01     | 177.03     |   0.1 | 65.54
Other   |            | 0.02499    |            |       |  0.01

Nlocal:        1077.75 ave        1494 max         657 min
Histogram: 1 1 0 0 0 0 0 0 1 1
Nghost:        8908.25 ave       11934 max        5689 min
Histogram: 1 1 0 0 0 0 0 0 0 2
Neighs:         536710 ave      798273 max      198736 min
Histogram: 1 0 0 1 0 0 0 0 0 2

Total # of neighbors = 2146840
Ave neighs/atom = 497.99119
Ave special neighs/atom = 0.029227557
Neighbor list builds = 1944
Dangerous builds = 0

  unfix swp
  thermo_style custom step temp pe

next temp
jump SELF minimize_temp

  variable ftemp equal v_temp

  # Electrostatic relaxation
  fix swp swpFe atom/swap 1 1 ${rand} ${temp} ke no types 6 7
  fix swp swpFe atom/swap 1 1 594805 ${temp} ke no types 6 7
  fix swp swpFe atom/swap 1 1 594805 6075 ke no types 6 7
  thermo 100
  thermo_style custom step v_ftemp pe f_swp[1] f_swp[2]
  run ${nsteps}
  run 972
WARNING: No fixes with time integration, atoms won't move (../verlet.cpp:60)
PPPM initialization ...
  using 12-bit tables for long-range coulomb (../kspace.cpp:340)
  G vector (1/distance) = 0.29499995
  grid = 45 45 250
  stencil order = 5
  estimated absolute RMS force accuracy = 0.00038527262
  estimated relative force accuracy = 1.160237e-06
  using double precision KISS FFT
  3d grid and FFT values/proc = 554040 378675
  generated 45 of 45 mixed pair_coeff terms from arithmetic mixing rule
Per MPI rank memory allocation (min/avg/max) = 24.35 | 35.11 | 63.71 Mbytes
Step v_ftemp PotEng f_swp[1] f_swp[2] 
   19440         6075   -786877.61            0            0 
   19500         6075   -786864.88           60            5 
   19600         6075   -786892.63          160           16 
   19700         6075    -786804.6          260           24 
   19800         6075   -786888.19          360           32 
   19900         6075   -786829.19          460           37 
   20000         6075   -786837.67          560           47 
   20100         6075   -786801.15          660           56 
   20200         6075   -786870.04          760           67 
   20300         6075   -786893.27          860           72 
   20400         6075   -786869.47          960           84 
   20412         6075   -786869.47          972           84 
Loop time of 269.34 on 4 procs for 972 steps with 4311 atoms

Performance: 0.156 ns/day, 153.944 hours/ns, 3.609 timesteps/s
94.3% CPU use with 4 MPI tasks x no OpenMP threads

MPI task timing breakdown:
Section |  min time  |  avg time  |  max time  |%varavg| %total
---------------------------------------------------------------
Pair    | 2.8372     | 7.4585     | 11.061     | 127.1 |  2.77
Bond    | 0.0015297  | 0.0033478  | 0.0078335  |   4.5 |  0.00
Kspace  | 64.232     | 67.838     | 72.46      |  42.2 | 25.19
Neigh   | 16.672     | 16.701     | 16.74      |   0.6 |  6.20
Comm    | 0.41649    | 0.46951    | 0.50292    |   5.0 |  0.17
Output  | 0.00020971 | 0.00051082 | 0.0012739  |   0.0 |  0.00
Modify  | 176.84     | 176.84     | 176.86     |   0.1 | 65.66
Other   |            | 0.02385    |            |       |  0.01

Nlocal:        1077.75 ave        1494 max         657 min
Histogram: 1 1 0 0 0 0 0 0 1 1
Nghost:        8908.25 ave       11934 max        5689 min
Histogram: 1 1 0 0 0 0 0 0 0 2
Neighs:         536710 ave      798273 max      198736 min
Histogram: 1 0 0 1 0 0 0 0 0 2

Total # of neighbors = 2146840
Ave neighs/atom = 497.99119
Ave special neighs/atom = 0.029227557
Neighbor list builds = 1944
Dangerous builds = 0

  unfix swp
  thermo_style custom step temp pe

next temp
jump SELF minimize_temp

  variable ftemp equal v_temp

  # Electrostatic relaxation
  fix swp swpFe atom/swap 1 1 ${rand} ${temp} ke no types 6 7
  fix swp swpFe atom/swap 1 1 3129163 ${temp} ke no types 6 7
  fix swp swpFe atom/swap 1 1 3129163 5467 ke no types 6 7
  thermo 100
  thermo_style custom step v_ftemp pe f_swp[1] f_swp[2]
  run ${nsteps}
  run 972
WARNING: No fixes with time integration, atoms won't move (../verlet.cpp:60)
PPPM initialization ...
  using 12-bit tables for long-range coulomb (../kspace.cpp:340)
  G vector (1/distance) = 0.29499995
  grid = 45 45 250
  stencil order = 5
  estimated absolute RMS force accuracy = 0.00038527262
  estimated relative force accuracy = 1.160237e-06
  using double precision KISS FFT
  3d grid and FFT values/proc = 554040 378675
  generated 45 of 45 mixed pair_coeff terms from arithmetic mixing rule
Per MPI rank memory allocation (min/avg/max) = 24.35 | 35.11 | 63.71 Mbytes
Step v_ftemp PotEng f_swp[1] f_swp[2] 
   20412         5467   -786869.47            0            0 
   20500         5467   -786945.64           88           11 
   20600         5467   -786921.27          188           17 
   20700         5467   -786839.43          288           26 
   20800         5467   -786880.38          388           36 
   20900         5467   -786972.96          488           48 
   21000         5467    -786940.3          588           50 
   21100         5467   -786871.36          688           57 
   21200         5467   -786928.49          788           63 
   21300         5467      -786874          888           69 
   21384         5467   -786897.39          972           77 
Loop time of 266.884 on 4 procs for 972 steps with 4311 atoms

Performance: 0.157 ns/day, 152.540 hours/ns, 3.642 timesteps/s
94.0% CPU use with 4 MPI tasks x no OpenMP threads

MPI task timing breakdown:
Section |  min time  |  avg time  |  max time  |%varavg| %total
---------------------------------------------------------------
Pair    | 2.8657     | 7.4965     | 11.107     | 126.8 |  2.81
Bond    | 0.0016121  | 0.0034217  | 0.0084831  |   5.0 |  0.00
Kspace  | 62.296     | 65.926     | 70.538     |  42.8 | 24.70
Neigh   | 17.03      | 17.069     | 17.103     |   0.7 |  6.40
Comm    | 0.4565     | 0.52214    | 0.56551    |   5.8 |  0.20
Output  | 0.00029599 | 0.0005768  | 0.0013764  |   0.0 |  0.00
Modify  | 175.83     | 175.84     | 175.85     |   0.1 | 65.89
Other   |            | 0.02727    |            |       |  0.01

Nlocal:        1077.75 ave        1494 max         657 min
Histogram: 1 1 0 0 0 0 0 0 1 1
Nghost:        8908.25 ave       11934 max        5689 min
Histogram: 1 1 0 0 0 0 0 0 0 2
Neighs:         536710 ave      798273 max      198736 min
Histogram: 1 0 0 1 0 0 0 0 0 2

Total # of neighbors = 2146840
Ave neighs/atom = 497.99119
Ave special neighs/atom = 0.029227557
Neighbor list builds = 1944
Dangerous builds = 0

  unfix swp
  thermo_style custom step temp pe

next temp
jump SELF minimize_temp

  variable ftemp equal v_temp

  # Electrostatic relaxation
  fix swp swpFe atom/swap 1 1 ${rand} ${temp} ke no types 6 7
  fix swp swpFe atom/swap 1 1 8397505 ${temp} ke no types 6 7
  fix swp swpFe atom/swap 1 1 8397505 4920 ke no types 6 7
  thermo 100
  thermo_style custom step v_ftemp pe f_swp[1] f_swp[2]
  run ${nsteps}
  run 972
WARNING: No fixes with time integration, atoms won't move (../verlet.cpp:60)
PPPM initialization ...
  using 12-bit tables for long-range coulomb (../kspace.cpp:340)
  G vector (1/distance) = 0.29499995
  grid = 45 45 250
  stencil order = 5
  estimated absolute RMS force accuracy = 0.00038527262
  estimated relative force accuracy = 1.160237e-06
  using double precision KISS FFT
  3d grid and FFT values/proc = 554040 378675
  generated 45 of 45 mixed pair_coeff terms from arithmetic mixing rule
Per MPI rank memory allocation (min/avg/max) = 24.35 | 35.11 | 63.71 Mbytes
Step v_ftemp PotEng f_swp[1] f_swp[2] 
   21384         4920   -786897.39            0            0 
   21400         4920   -786899.54           16            1 
   21500         4920   -786872.24          116            9 
   21600         4920   -786919.69          216           14 
   21700         4920   -786911.05          316           19 
   21800         4920   -786885.64          416           25 
   21900         4920   -786884.08          516           30 
   22000         4920   -786935.11          616           41 
   22100         4920   -786904.22          716           47 
   22200         4920   -786894.77          816           56 
   22300         4920   -786940.75          916           59 
   22356         4920   -786898.14          972           64 
Loop time of 267.965 on 4 procs for 972 steps with 4311 atoms

Performance: 0.157 ns/day, 153.158 hours/ns, 3.627 timesteps/s
94.1% CPU use with 4 MPI tasks x no OpenMP threads

MPI task timing breakdown:
Section |  min time  |  avg time  |  max time  |%varavg| %total
---------------------------------------------------------------
Pair    | 2.8791     | 7.481      | 11.064     | 126.8 |  2.79
Bond    | 0.0016501  | 0.0034921  | 0.0082899  |   4.7 |  0.00
Kspace  | 63.16      | 66.746     | 71.35      |  42.5 | 24.91
Neigh   | 16.916     | 16.942     | 16.979     |   0.6 |  6.32
Comm    | 0.43332    | 0.48373    | 0.51698    |   5.0 |  0.18
Output  | 0.0002208  | 0.00063343 | 0.0017051  |   0.0 |  0.00
Modify  | 176.27     | 176.28     | 176.3      |   0.1 | 65.79
Other   |            | 0.02614    |            |       |  0.01

Nlocal:        1077.75 ave        1494 max         657 min
Histogram: 1 1 0 0 0 0 0 0 1 1
Nghost:        8908.25 ave       11934 max        5689 min
Histogram: 1 1 0 0 0 0 0 0 0 2
Neighs:         536710 ave      798273 max      198736 min
Histogram: 1 0 0 1 0 0 0 0 0 2

Total # of neighbors = 2146840
Ave neighs/atom = 497.99119
Ave special neighs/atom = 0.029227557
Neighbor list builds = 1944
Dangerous builds = 0

  unfix swp
  thermo_style custom step temp pe

next temp
jump SELF minimize_temp

  variable ftemp equal v_temp

  # Electrostatic relaxation
  fix swp swpFe atom/swap 1 1 ${rand} ${temp} ke no types 6 7
  fix swp swpFe atom/swap 1 1 7746391 ${temp} ke no types 6 7
  fix swp swpFe atom/swap 1 1 7746391 4428 ke no types 6 7
  thermo 100
  thermo_style custom step v_ftemp pe f_swp[1] f_swp[2]
  run ${nsteps}
  run 972
WARNING: No fixes with time integration, atoms won't move (../verlet.cpp:60)
PPPM initialization ...
  using 12-bit tables for long-range coulomb (../kspace.cpp:340)
  G vector (1/distance) = 0.29499995
  grid = 45 45 250
  stencil order = 5
  estimated absolute RMS force accuracy = 0.00038527262
  estimated relative force accuracy = 1.160237e-06
  using double precision KISS FFT
  3d grid and FFT values/proc = 554040 378675
  generated 45 of 45 mixed pair_coeff terms from arithmetic mixing rule
Per MPI rank memory allocation (min/avg/max) = 24.35 | 35.11 | 63.71 Mbytes
Step v_ftemp PotEng f_swp[1] f_swp[2] 
   22356         4428   -786898.14            0            0 
   22400         4428   -786898.14           44            0 
   22500         4428   -786910.66          144            7 
   22600         4428   -786921.61          244           12 
   22700         4428   -786906.69          344           13 
   22800         4428   -786915.93          444           17 
   22900         4428   -786942.35          544           21 
   23000         4428   -786954.42          644           26 
   23100         4428   -786977.94          744           29 
   23200         4428   -786948.09          844           33 
   23300         4428   -786955.04          944           35 
   23328         4428   -786939.05          972           37 
Loop time of 269.071 on 4 procs for 972 steps with 4311 atoms

Performance: 0.156 ns/day, 153.790 hours/ns, 3.612 timesteps/s
94.1% CPU use with 4 MPI tasks x no OpenMP threads

MPI task timing breakdown:
Section |  min time  |  avg time  |  max time  |%varavg| %total
---------------------------------------------------------------
Pair    | 2.8204     | 7.3451     | 10.847     | 124.9 |  2.73
Bond    | 0.00123    | 0.0028643  | 0.0074157  |   4.9 |  0.00
Kspace  | 63.548     | 67.054     | 71.58      |  41.4 | 24.92
Neigh   | 17.05      | 17.083     | 17.128     |   0.8 |  6.35
Comm    | 0.48067    | 0.54267    | 0.58687    |   5.8 |  0.20
Output  | 0.00025461 | 0.00066901 | 0.0017315  |   0.0 |  0.00
Modify  | 177.01     | 177.02     | 177.03     |   0.1 | 65.79
Other   |            | 0.02499    |            |       |  0.01

Nlocal:        1077.75 ave        1494 max         657 min
Histogram: 1 1 0 0 0 0 0 0 1 1
Nghost:        8908.25 ave       11934 max        5689 min
Histogram: 1 1 0 0 0 0 0 0 0 2
Neighs:         536710 ave      798273 max      198736 min
Histogram: 1 0 0 1 0 0 0 0 0 2

Total # of neighbors = 2146840
Ave neighs/atom = 497.99119
Ave special neighs/atom = 0.029227557
Neighbor list builds = 1944
Dangerous builds = 0

  unfix swp
  thermo_style custom step temp pe

next temp
jump SELF minimize_temp

  variable ftemp equal v_temp

  # Electrostatic relaxation
  fix swp swpFe atom/swap 1 1 ${rand} ${temp} ke no types 6 7
  fix swp swpFe atom/swap 1 1 6520128 ${temp} ke no types 6 7
  fix swp swpFe atom/swap 1 1 6520128 3985 ke no types 6 7
  thermo 100
  thermo_style custom step v_ftemp pe f_swp[1] f_swp[2]
  run ${nsteps}
  run 972
WARNING: No fixes with time integration, atoms won't move (../verlet.cpp:60)
PPPM initialization ...
  using 12-bit tables for long-range coulomb (../kspace.cpp:340)
  G vector (1/distance) = 0.29499995
  grid = 45 45 250
  stencil order = 5
  estimated absolute RMS force accuracy = 0.00038527262
  estimated relative force accuracy = 1.160237e-06
  using double precision KISS FFT
  3d grid and FFT values/proc = 554040 378675
  generated 45 of 45 mixed pair_coeff terms from arithmetic mixing rule
Per MPI rank memory allocation (min/avg/max) = 24.35 | 35.11 | 63.71 Mbytes
Step v_ftemp PotEng f_swp[1] f_swp[2] 
   23328         3985   -786939.05            0            0 
   23400         3985   -786948.54           72            3 
   23500         3985   -786985.24          172            8 
   23600         3985   -786984.14          272           13 
   23700         3985   -786968.29          372           18 
   23800         3985   -786966.79          472           23 
   23900         3985   -786932.83          572           34 
   24000         3985   -786967.82          672           42 
   24100         3985   -786992.18          772           47 
   24200         3985   -786999.71          872           49 
   24300         3985   -786992.14          972           51 
Loop time of 268.172 on 4 procs for 972 steps with 4311 atoms

Performance: 0.157 ns/day, 153.276 hours/ns, 3.625 timesteps/s
94.2% CPU use with 4 MPI tasks x no OpenMP threads

MPI task timing breakdown:
Section |  min time  |  avg time  |  max time  |%varavg| %total
---------------------------------------------------------------
Pair    | 2.84       | 7.4444     | 11.108     | 126.9 |  2.78
Bond    | 0.0015871  | 0.003314   | 0.0079454  |   4.7 |  0.00
Kspace  | 63.198     | 66.865     | 71.47      |  42.4 | 24.93
Neigh   | 16.951     | 16.978     | 17.017     |   0.7 |  6.33
Comm    | 0.44336    | 0.49544    | 0.52926    |   5.1 |  0.18
Output  | 0.00020134 | 0.00047916 | 0.0011817  |   0.0 |  0.00
Modify  | 176.35     | 176.36     | 176.38     |   0.1 | 65.76
Other   |            | 0.02521    |            |       |  0.01

Nlocal:        1077.75 ave        1494 max         657 min
Histogram: 1 1 0 0 0 0 0 0 1 1
Nghost:        8908.25 ave       11934 max        5689 min
Histogram: 1 1 0 0 0 0 0 0 0 2
Neighs:         536710 ave      798273 max      198736 min
Histogram: 1 0 0 1 0 0 0 0 0 2

Total # of neighbors = 2146840
[...]

Performance: 0.154 ns/day, 155.542 hours/ns, 3.572 timesteps/s
94.0% CPU use with 4 MPI tasks x no OpenMP threads

MPI task timing breakdown:
Section |  min time  |  avg time  |  max time  |%varavg| %total
---------------------------------------------------------------
Pair    | 2.8006     | 7.3082     | 10.801     | 125.3 |  2.69
Bond    | 0.0013878  | 0.002897   | 0.0068514  |   4.3 |  0.00
Kspace  | 65.418     | 68.914     | 73.423     |  40.8 | 25.32
Neigh   | 16.718     | 16.746     | 16.788     |   0.7 |  6.15
Comm    | 0.44262    | 0.49949    | 0.53587    |   5.4 |  0.18
Output  | 0.00022316 | 0.00056814 | 0.0014337  |   0.0 |  0.00
Modify  | 178.63     | 178.64     | 178.66     |   0.1 | 65.64
Other   |            | 0.02399    |            |       |  0.01

Nlocal:        1077.75 ave        1494 max         657 min
Histogram: 1 1 0 0 0 0 0 0 1 1
Nghost:        8908.25 ave       11934 max        5689 min
Histogram: 1 1 0 0 0 0 0 0 0 2
Neighs:         536710 ave      798273 max      198736 min
Histogram: 1 0 0 1 0 0 0 0 0 2

Total # of neighbors = 2146840
Ave neighs/atom = 497.99119
Ave special neighs/atom = 0.029227557
Neighbor list builds = 1944
Dangerous builds = 0

  unfix swp
  thermo_style custom step temp pe

next temp
jump SELF minimize_temp

  variable ftemp equal v_temp

  # Electrostatic relaxation
  fix swp swpFe atom/swap 1 1 ${rand} ${temp} ke no types 6 7
  fix swp swpFe atom/swap 1 1 8822405 ${temp} ke no types 6 7
  fix swp swpFe atom/swap 1 1 8822405 5 ke no types 6 7
  thermo 100
  thermo_style custom step v_ftemp pe f_swp[1] f_swp[2]
  run ${nsteps}
  run 972
WARNING: No fixes with time integration, atoms won't move (../verlet.cpp:60)
PPPM initialization ...
  using 12-bit tables for long-range coulomb (../kspace.cpp:340)
  G vector (1/distance) = 0.29499995
  grid = 45 45 250
  stencil order = 5
  estimated absolute RMS force accuracy = 0.00038527262
  estimated relative force accuracy = 1.160237e-06
  using double precision KISS FFT
  3d grid and FFT values/proc = 554040 378675
  generated 45 of 45 mixed pair_coeff terms from arithmetic mixing rule
Per MPI rank memory allocation (min/avg/max) = 24.35 | 35.11 | 63.71 Mbytes
Step v_ftemp PotEng f_swp[1] f_swp[2] 
   79704            5   -787013.83            0            0 
   79800            5   -787013.83           96            0 
   79900            5   -787013.83          196            0 
   80000            5   -787013.83          296            0 
   80100            5   -787013.83          396            0 
   80200            5   -787013.83          496            0 
   80300            5   -787013.83          596            0 
   80400            5   -787013.83          696            0 
   80500            5   -787013.83          796            0 
   80600            5   -787013.83          896            0 
   80676            5   -787013.83          972            0 
Loop time of 269.635 on 4 procs for 972 steps with 4311 atoms

Performance: 0.156 ns/day, 154.112 hours/ns, 3.605 timesteps/s
94.1% CPU use with 4 MPI tasks x no OpenMP threads

MPI task timing breakdown:
Section |  min time  |  avg time  |  max time  |%varavg| %total
---------------------------------------------------------------
Pair    | 2.8118     | 7.3211     | 10.875     | 125.2 |  2.72
Bond    | 0.0013207  | 0.0028608  | 0.0072021  |   4.7 |  0.00
Kspace  | 64.038     | 67.596     | 72.105     |  41.2 | 25.07
Neigh   | 16.965     | 16.993     | 17.033     |   0.7 |  6.30
Comm    | 0.47685    | 0.53313    | 0.57038    |   5.3 |  0.20
Output  | 0.00022766 | 0.00051306 | 0.001211   |   0.0 |  0.00
Modify  | 177.15     | 177.16     | 177.18     |   0.1 | 65.70
Other   |            | 0.02498    |            |       |  0.01

Nlocal:        1077.75 ave        1494 max         657 min
Histogram: 1 1 0 0 0 0 0 0 1 1
Nghost:        8908.25 ave       11934 max        5689 min
Histogram: 1 1 0 0 0 0 0 0 0 2
Neighs:         536710 ave      798273 max      198736 min
Histogram: 1 0 0 1 0 0 0 0 0 2

Total # of neighbors = 2146840
Ave neighs/atom = 497.99119
Ave special neighs/atom = 0.029227557
Neighbor list builds = 1944
Dangerous builds = 0

  unfix swp
  thermo_style custom step temp pe

next temp
jump SELF minimize_temp

  variable ftemp equal v_temp

  # Electrostatic relaxation
  fix swp swpFe atom/swap 1 1 ${rand} ${temp} ke no types 6 7
  fix swp swpFe atom/swap 1 1 1866513 ${temp} ke no types 6 7
  fix swp swpFe atom/swap 1 1 1866513 4 ke no types 6 7
  thermo 100
  thermo_style custom step v_ftemp pe f_swp[1] f_swp[2]
  run ${nsteps}
  run 972
WARNING: No fixes with time integration, atoms won't move (../verlet.cpp:60)
PPPM initialization ...
  using 12-bit tables for long-range coulomb (../kspace.cpp:340)
  G vector (1/distance) = 0.29499995
  grid = 45 45 250
  stencil order = 5
  estimated absolute RMS force accuracy = 0.00038527262
  estimated relative force accuracy = 1.160237e-06
  using double precision KISS FFT
  3d grid and FFT values/proc = 554040 378675
  generated 45 of 45 mixed pair_coeff terms from arithmetic mixing rule
Per MPI rank memory allocation (min/avg/max) = 24.35 | 35.11 | 63.71 Mbytes
Step v_ftemp PotEng f_swp[1] f_swp[2] 
   80676            4   -787013.83            0            0 
   80700            4   -787013.83           24            0 
   80800            4   -787013.83          124            0 
   80900            4   -787013.83          224            0 
   81000            4   -787013.83          324            0 
   81100            4   -787013.83          424            0 
   81200            4   -787013.83          524            0 
   81300            4   -787013.83          624            0 
   81400            4   -787013.83          724            0 
   81500            4   -787013.83          824            0 
   81600            4   -787013.83          924            0 
   81648            4   -787013.83          972            0 
Loop time of 269.806 on 4 procs for 972 steps with 4311 atoms

Performance: 0.156 ns/day, 154.210 hours/ns, 3.603 timesteps/s
94.1% CPU use with 4 MPI tasks x no OpenMP threads

MPI task timing breakdown:
Section |  min time  |  avg time  |  max time  |%varavg| %total
---------------------------------------------------------------
Pair    | 2.8368     | 7.3753     | 10.895     | 126.3 |  2.73
Bond    | 0.0012069  | 0.0030268  | 0.0073876  |   4.6 |  0.00
Kspace  | 64.621     | 68.144     | 72.683     |  41.6 | 25.26
Neigh   | 16.783     | 16.81      | 16.848     |   0.6 |  6.23
Comm    | 0.44425    | 0.49571    | 0.52891    |   5.0 |  0.18
Output  | 0.00024722 | 0.00057803 | 0.0013775  |   0.0 |  0.00
Modify  | 176.94     | 176.95     | 176.97     |   0.1 | 65.59
Other   |            | 0.02392    |            |       |  0.01

Nlocal:        1077.75 ave        1494 max         657 min
Histogram: 1 1 0 0 0 0 0 0 1 1
Nghost:        8908.25 ave       11934 max        5689 min
Histogram: 1 1 0 0 0 0 0 0 0 2
Neighs:         536710 ave      798273 max      198736 min
Histogram: 1 0 0 1 0 0 0 0 0 2

Total # of neighbors = 2146840
Ave neighs/atom = 497.99119
Ave special neighs/atom = 0.029227557
Neighbor list builds = 1944
Dangerous builds = 0

  unfix swp
  thermo_style custom step temp pe

next temp
jump SELF minimize_temp

  variable ftemp equal v_temp

  # Electrostatic relaxation
  fix swp swpFe atom/swap 1 1 ${rand} ${temp} ke no types 6 7
  fix swp swpFe atom/swap 1 1 2979469 ${temp} ke no types 6 7
  fix swp swpFe atom/swap 1 1 2979469 3 ke no types 6 7
  thermo 100
  thermo_style custom step v_ftemp pe f_swp[1] f_swp[2]
  run ${nsteps}
  run 972
WARNING: No fixes with time integration, atoms won't move (../verlet.cpp:60)
PPPM initialization ...
  using 12-bit tables for long-range coulomb (../kspace.cpp:340)
  G vector (1/distance) = 0.29499995
  grid = 45 45 250
  stencil order = 5
  estimated absolute RMS force accuracy = 0.00038527262
  estimated relative force accuracy = 1.160237e-06
  using double precision KISS FFT
  3d grid and FFT values/proc = 554040 378675
  generated 45 of 45 mixed pair_coeff terms from arithmetic mixing rule
Per MPI rank memory allocation (min/avg/max) = 24.35 | 35.11 | 63.71 Mbytes
Step v_ftemp PotEng f_swp[1] f_swp[2] 
   81648            3   -787013.83            0            0 
   81700            3   -787013.83           52            0 
   81800            3   -787013.83          152            0 
   81900            3   -787013.83          252            0 
   82000            3   -787013.83          352            0 
   82100            3   -787013.83          452            0 
   82200            3   -787013.83          552            0 
   82300            3   -787013.83          652            0 
   82400            3   -787013.83          752            0 
   82500            3   -787013.83          852            0 
   82600            3   -787013.83          952            0 
   82620            3   -787013.83          972            0 
Loop time of 266.933 on 4 procs for 972 steps with 4311 atoms

Performance: 0.157 ns/day, 152.568 hours/ns, 3.641 timesteps/s
94.2% CPU use with 4 MPI tasks x no OpenMP threads

MPI task timing breakdown:
Section |  min time  |  avg time  |  max time  |%varavg| %total
---------------------------------------------------------------
Pair    | 2.8515     | 7.3706     | 10.884     | 125.0 |  2.76
Bond    | 0.0012974  | 0.002954   | 0.0073922  |   4.7 |  0.00
Kspace  | 62.532     | 66.052     | 70.57      |  41.8 | 24.74
Neigh   | 16.871     | 16.899     | 16.94      |   0.7 |  6.33
Comm    | 0.46584    | 0.52461    | 0.56355    |   5.5 |  0.20
Output  | 0.00025365 | 0.00060002 | 0.0014542  |   0.0 |  0.00
Modify  | 176.04     | 176.06     | 176.07     |   0.1 | 65.96
Other   |            | 0.02657    |            |       |  0.01

Nlocal:        1077.75 ave        1494 max         657 min
Histogram: 1 1 0 0 0 0 0 0 1 1
Nghost:        8908.25 ave       11934 max        5689 min
Histogram: 1 1 0 0 0 0 0 0 0 2
Neighs:         536710 ave      798273 max      198736 min
Histogram: 1 0 0 1 0 0 0 0 0 2

Total # of neighbors = 2146840
Ave neighs/atom = 497.99119
Ave special neighs/atom = 0.029227557
Neighbor list builds = 1944
Dangerous builds = 0

  unfix swp
  thermo_style custom step temp pe

next temp
jump SELF minimize_temp

  variable ftemp equal v_temp

  # Electrostatic relaxation
  fix swp swpFe atom/swap 1 1 ${rand} ${temp} ke no types 6 7
  fix swp swpFe atom/swap 1 1 7974133 ${temp} ke no types 6 7
  fix swp swpFe atom/swap 1 1 7974133 2 ke no types 6 7
  thermo 100
  thermo_style custom step v_ftemp pe f_swp[1] f_swp[2]
  run ${nsteps}
  run 972
WARNING: No fixes with time integration, atoms won't move (../verlet.cpp:60)
PPPM initialization ...
  using 12-bit tables for long-range coulomb (../kspace.cpp:340)
  G vector (1/distance) = 0.29499995
  grid = 45 45 250
  stencil order = 5
  estimated absolute RMS force accuracy = 0.00038527262
  estimated relative force accuracy = 1.160237e-06
  using double precision KISS FFT
  3d grid and FFT values/proc = 554040 378675
  generated 45 of 45 mixed pair_coeff terms from arithmetic mixing rule
Per MPI rank memory allocation (min/avg/max) = 24.35 | 35.11 | 63.71 Mbytes
Step v_ftemp PotEng f_swp[1] f_swp[2] 
   82620            2   -787013.83            0            0 
   82700            2   -787013.83           80            0 
   82800            2   -787013.83          180            0 
   82900            2   -787013.83          280            0 
   83000            2   -787013.83          380            0 
   83100            2   -787013.83          480            0 
   83200            2   -787013.83          580            0 
   83300            2   -787013.83          680            0 
   83400            2   -787013.83          780            0 
   83500            2   -787013.83          880            0 
   83592            2   -787013.83          972            0 
Loop time of 268.216 on 4 procs for 972 steps with 4311 atoms

Performance: 0.157 ns/day, 153.301 hours/ns, 3.624 timesteps/s
94.1% CPU use with 4 MPI tasks x no OpenMP threads

MPI task timing breakdown:
Section |  min time  |  avg time  |  max time  |%varavg| %total
---------------------------------------------------------------
Pair    | 2.8414     | 7.4297     | 11.044     | 126.5 |  2.77
Bond    | 0.0015813  | 0.003167   | 0.0075834  |   4.5 |  0.00
Kspace  | 63.956     | 67.577     | 72.167     |  42.0 | 25.20
Neigh   | 16.829     | 16.856     | 16.891     |   0.6 |  6.28
Comm    | 0.45178    | 0.49874    | 0.53589    |   4.8 |  0.19
Output  | 0.00020713 | 0.00056534 | 0.0014618  |   0.0 |  0.00
Modify  | 175.81     | 175.82     | 175.84     |   0.1 | 65.55
Other   |            | 0.02562    |            |       |  0.01

Nlocal:        1077.75 ave        1494 max         657 min
Histogram: 1 1 0 0 0 0 0 0 1 1
Nghost:        8908.25 ave       11934 max        5689 min
Histogram: 1 1 0 0 0 0 0 0 0 2
Neighs:         536710 ave      798273 max      198736 min
Histogram: 1 0 0 1 0 0 0 0 0 2

Total # of neighbors = 2146840
Ave neighs/atom = 497.99119
Ave special neighs/atom = 0.029227557
Neighbor list builds = 1944
Dangerous builds = 0

  unfix swp
  thermo_style custom step temp pe

next temp
jump SELF minimize_temp

  variable ftemp equal v_temp

  # Electrostatic relaxation
  fix swp swpFe atom/swap 1 1 ${rand} ${temp} ke no types 6 7
  fix swp swpFe atom/swap 1 1 9540448 ${temp} ke no types 6 7
  fix swp swpFe atom/swap 1 1 9540448 1 ke no types 6 7
  thermo 100
  thermo_style custom step v_ftemp pe f_swp[1] f_swp[2]
  run ${nsteps}
  run 972
WARNING: No fixes with time integration, atoms won't move (../verlet.cpp:60)
PPPM initialization ...
  using 12-bit tables for long-range coulomb (../kspace.cpp:340)
  G vector (1/distance) = 0.29499995
  grid = 45 45 250
  stencil order = 5
  estimated absolute RMS force accuracy = 0.00038527262
  estimated relative force accuracy = 1.160237e-06
  using double precision KISS FFT
  3d grid and FFT values/proc = 554040 378675
  generated 45 of 45 mixed pair_coeff terms from arithmetic mixing rule
Per MPI rank memory allocation (min/avg/max) = 24.35 | 35.11 | 63.71 Mbytes
Step v_ftemp PotEng f_swp[1] f_swp[2] 
   83592            1   -787013.83            0            0 
   83600            1   -787013.83            8            0 
   83700            1   -787013.83          108            0 
   83800            1   -787013.83          208            0 
   83900            1   -787013.83          308            0 
   84000            1   -787013.83          408            0 
   84100            1   -787013.83          508            0 
   84200            1   -787013.83          608            0 
   84300            1   -787013.83          708            0 
   84400            1   -787013.83          808            0 
   84500            1   -787013.83          908            0 
   84564            1   -787013.83          972            0 
Loop time of 267.248 on 4 procs for 972 steps with 4311 atoms

Performance: 0.157 ns/day, 152.748 hours/ns, 3.637 timesteps/s
94.2% CPU use with 4 MPI tasks x no OpenMP threads

MPI task timing breakdown:
Section |  min time  |  avg time  |  max time  |%varavg| %total
---------------------------------------------------------------
Pair    | 2.8461     | 7.431      | 11.022     | 126.4 |  2.78
Bond    | 0.0014368  | 0.0032397  | 0.0081849  |   5.0 |  0.00
Kspace  | 64.076     | 67.671     | 72.255     |  41.9 | 25.32
Neigh   | 16.778     | 16.804     | 16.841     |   0.6 |  6.29
Comm    | 0.43559    | 0.48587    | 0.51815    |   4.9 |  0.18
Output  | 0.00031322 | 0.00073015 | 0.0017653  |   0.0 |  0.00
Modify  | 174.82     | 174.83     | 174.84     |   0.1 | 65.42
Other   |            | 0.02468    |            |       |  0.01

Nlocal:        1077.75 ave        1494 max         657 min
Histogram: 1 1 0 0 0 0 0 0 1 1
Nghost:        8908.25 ave       11934 max        5689 min
Histogram: 1 1 0 0 0 0 0 0 0 2
Neighs:         536710 ave      798273 max      198736 min
Histogram: 1 0 0 1 0 0 0 0 0 2

Total # of neighbors = 2146840
Ave neighs/atom = 497.99119
Ave special neighs/atom = 0.029227557
Neighbor list builds = 1944
Dangerous builds = 0

  unfix swp
  thermo_style custom step temp pe

next temp
jump SELF minimize_temp

write_data 001-dbt_3x3_${layer}L_${type}_lqeq.data
write_data 001-dbt_3x3_21L_${type}_lqeq.data
write_data 001-dbt_3x3_21L_fa_tet_half_qeq_lqeq.data
System init for write_data ...
PPPM initialization ...
  using 12-bit tables for long-range coulomb (../kspace.cpp:340)
  G vector (1/distance) = 0.29499995
  grid = 45 45 250
  stencil order = 5
  estimated absolute RMS force accuracy = 0.00038527262
  estimated relative force accuracy = 1.160237e-06
  using double precision KISS FFT
  3d grid and FFT values/proc = 554040 378675
  generated 45 of 45 mixed pair_coeff terms from arithmetic mixing rule

# Full minimization
minimize 1.0e-6 1.0e-9 1000 10000
PPPM initialization ...
  using 12-bit tables for long-range coulomb (../kspace.cpp:340)
  G vector (1/distance) = 0.29499995
  grid = 45 45 250
  stencil order = 5
  estimated absolute RMS force accuracy = 0.00038527262
  estimated relative force accuracy = 1.160237e-06
  using double precision KISS FFT
  3d grid and FFT values/proc = 554040 378675
  generated 45 of 45 mixed pair_coeff terms from arithmetic mixing rule
Per MPI rank memory allocation (min/avg/max) = 25.48 | 36.23 | 64.84 Mbytes
Step Temp PotEng 
   84564            0   -787013.83 
   84600            0   -806296.28 
   84700            0   -807026.35 
   84800            0   -807362.94 
   84900            0   -807646.65 
   85000            0   -807908.33 
   85017            0   -807945.95 
Loop time of 69.1682 on 4 procs for 453 steps with 4311 atoms

93.8% CPU use with 4 MPI tasks x no OpenMP threads

Minimization stats:
  Stopping criterion = energy tolerance
  Energy initial, next-to-last, final = 
     -787013.831423578  -807945.169498906  -807945.954671813
  Force two-norm initial, final = 5318.5995 32.855461
  Force max component initial, final = 174.32488 5.2142715
  Final line search alpha, max atom move = 0.0028126093 0.014665708
  Iterations, force evaluations = 453 882

MPI task timing breakdown:
Section |  min time  |  avg time  |  max time  |%varavg| %total
---------------------------------------------------------------
Pair    | 4.1269     | 10.287     | 14.776     | 139.2 | 14.87
Bond    | 0.0016361  | 0.0043681  | 0.011047   |   5.9 |  0.01
Kspace  | 53.827     | 58.318     | 64.477     |  58.5 | 84.31
Neigh   | 0.29788    | 0.29838    | 0.2991     |   0.1 |  0.43
Comm    | 0.18385    | 0.1972     | 0.20817    |   2.2 |  0.29
Output  | 0.00012476 | 0.00025062 | 0.00062736 |   0.0 |  0.00
Modify  | 0          | 0          | 0          |   0.0 |  0.00
Other   |            | 0.06231    |            |       |  0.09

Nlocal:        1077.75 ave        1467 max         657 min
Histogram: 1 1 0 0 0 0 0 0 0 2
Nghost:        8922.25 ave       11954 max        5696 min
Histogram: 1 1 0 0 0 0 0 0 0 2
Neighs:         530032 ave      761745 max      198416 min
Histogram: 1 0 0 1 0 0 0 0 0 2

Total # of neighbors = 2120130
Ave neighs/atom = 491.79541
Ave special neighs/atom = 0.029227557
Neighbor list builds = 17
Dangerous builds = 0

write_data 001-dbt_3x3_${layer}L_${type}_lqeq_min.data
write_data 001-dbt_3x3_21L_${type}_lqeq_min.data
write_data 001-dbt_3x3_21L_fa_tet_half_qeq_lqeq_min.data
System init for write_data ...
PPPM initialization ...
  using 12-bit tables for long-range coulomb (../kspace.cpp:340)
  G vector (1/distance) = 0.29499995
  grid = 45 45 250
  stencil order = 5
  estimated absolute RMS force accuracy = 0.00038527262
  estimated relative force accuracy = 1.160237e-06
  using double precision KISS FFT
  3d grid and FFT values/proc = 554040 378675
  generated 45 of 45 mixed pair_coeff terms from arithmetic mixing rule
Total wall time: 6:28:53
