LAMMPS data file via write_data, version 17 Feb 2022, timestep = 195

4356 atoms
10 atom types
72 bonds
6 bond types
108 angles
6 angle types
0 dihedrals
2 dihedral types
18 impropers
2 improper types

0 25.44 xlo xhi
0 25.44 ylo yhi
-64.778423 32.908 zlo zhi

Masses

1 12.011
2 1.008
3 15.9994
4 15.9994
5 1.008
6 55.845
7 55.845
8 15.9994
9 15.9994
10 1.008

Pair Coeffs # lj/cut/coul/long

1 0.0988 3.31521
2 0.0161 2.4473
3 0.1463 3.04812
4 0.093 3.24287
5 0.0047 0.537925
6 9.0298e-07 4.9062
7 9.0298e-07 4.9062
8 0.1554 3.16554
9 0.1554 3.16554
10 0 0

Bond Coeffs # harmonic

1 361.8 1.105
2 652.57 1.218
3 383.13 1.351
4 563.51 0.973
5 554.135 1
6 0 2.08

Angle Coeffs # harmonic

1 51.617 106.55
2 65.93 123.65
3 65.262 109.49
4 115.745 122.1
5 118.817 130.25
6 30 109.47

Dihedral Coeffs # fourier

1 1 2.3 2 180
2 2 2.3 2 180 1.9 1 0

Improper Coeffs # cvff

1 10.5 -1 2
2 10.5 -1 2

Atoms # full

71 0 7 1.575 3.2663607189367543 4.28972986738175 -52.34014572396315 0 0 0
78 0 6 1.05 6.636848466246467 5.437504786675723 -53.708192660474715 0 0 0
3 0 6 1.05 25.39572048329535 3.100153938747785 -53.305988223303196 -1 0 0
74 0 6 1.05 4.3816875322401465 7.81688259730209 -53.721385654926586 0 0 0
7 0 6 1.05 2.1785328935131374 1.2757631219928096 -53.560871439549864 0 0 0
6 0 8 -1.05 1.9918981525132773 3.252560932421354 -53.2859944545463 0 0 0
75 0 8 -1.05 4.6225237195110775 5.508690230287453 -52.8983603631968 0 0 0
70 0 8 -1.05 2.4834661881208966 7.68297668997274 -53.07026503580484 0 0 0
4 0 8 -1.05 0.2197367413074533 1.1083167562150884 -52.83803300084686 0 0 0
73 0 8 -1.05 4.298812908507067 7.763765890111447 -50.7236347043417 0 0 0
19 0 8 -1.05 6.7319263590883045 3.4460471755627027 -53.19036280598191 0 0 0
79 0 8 -1.05 6.5490451316455545 5.1975722150265335 -50.756716503407006 0 0 0
77 0 8 -1.05 6.358473894666113 7.457615666825804 -52.95412644841025 0 0 0
5 0 7 1.575 0.28764798884579007 1.5708027620430052 -50.90132274643305 0 0 0
76 0 7 1.575 5.48974935788685 6.537957845715044 -51.522769023517306 0 0 0
11 0 6 1.05 4.357125379937909 1.2963806195438012 -51.386501628057 0 0 0
68 0 6 1.05 2.1426538182668025 5.231755221098506 -49.29842682071058 0 0 0
63 0 6 1.05 24.606960522281902 6.94519058147454 -49.671165230537206 -1 0 0
62 0 7 1.575 0.20954792381667411 5.487240372706514 -51.88026435631979 0 0 0
12 0 7 1.575 4.382109022151007 3.509155869144592 -48.990868050984446 0 0 0
17 0 6 1.05 6.473287823767319 1.2479236898661445 -49.10227802456207 0 0 0
18 0 7 1.575 6.461390941389139 3.323047292267863 -51.29010098210951 0 0 0
69 0 7 1.575 2.2372461295015498 7.6379414672667085 -51.15512722592256 0 0 0
15 0 8 -1.05 6.427773305967822 1.339495064014378 -51.096436337366285 0 0 0
64 0 8 -1.05 0.27843153128526815 5.787752474262847 -48.393790451565884 0 0 0
65 0 8 -1.05 0.18608769552589038 7.443801256186051 -51.31334017590904 0 0 0
16 0 8 -1.05 6.297811108094065 3.232396487241854 -48.69287844626322 0 0 0
14 0 8 -1.05 4.399309593454314 3.325480576138928 -50.949941652440245 0 0 0
67 0 8 -1.05 2.350525315805005 7.3990830419090265 -48.9928245292441 0 0 0
13 0 8 -1.05 4.326599748973134 1.4326002146503605 -48.49116484151529 0 0 0
66 0 8 -1.05 2.115711140970335 5.513524485867383 -51.26429535936711 0 0 0
8 0 8 -1.05 2.2080787131268242 1.0444128796920216 -50.727278610813336 0 0 0
10 0 8 -1.05 4.109689937094621 0.9890037866451968 -53.32291397199896 0 0 0
61 0 8 -1.05 24.848405270909012 5.032694920073278 -53.54998038097537 -1 0 0
2 0 8 -1.05 0.047436492553280675 3.5133890916728983 -51.176536913840124 0 0 0
20 0 7 1.575 7.621342010306834 0.21862260493647534 -52.28584804334212 0 0 0
81 0 8 -1.05 8.54715550331736 5.311759112855404 -53.08193602148844 0 0 0
22 0 8 -1.05 8.471948901452517 3.3311157575265256 -51.0475293828595 0 0 0
91 0 7 1.575 11.709993180531773 4.561499337515119 -52.02402345184195 0 0 0
23 0 7 1.575 8.708764307189826 3.3826796022825527 -53.08721733203549 0 0 0
27 0 7 1.575 10.848185501044664 1.3528669034568663 -53.02845116784795 0 0 0
26 0 8 -1.05 10.68905930345165 3.289587191342947 -53.00956902081705 0 0 0
90 0 8 -1.05 10.883822913857763 7.782137226967176 -53.026238724912176 0 0 0
24 0 8 -1.05 8.860288769220654 1.4060197023611407 -53.13363070756282 0 0 0
25 0 7 1.575 9.645725149508245 2.365826109702586 -49.90815948825485 0 0 0
88 0 7 1.575 10.62712960714677 5.560796718456595 -48.778525619560924 0 0 0
83 0 7 1.575 8.408670487866608 7.6449878536876925 -48.827304080616074 0 0 0
82 0 6 1.05 8.55727552308823 5.566099781201514 -51.089264970116844 0 0 0
89 0 6 1.05 10.586019884016036 7.617643831949552 -51.03426947052292 0 0 0
84 0 8 -1.05 8.633788079035632 5.6595838392613524 -48.61776146690005 0 0 0
85 0 8 -1.05 8.451162353373315 7.6668370987909205 -50.7870930092239 0 0 0
87 0 8 -1.05 10.5128684536162 7.565158058530885 -48.6881727461865 0 0 0
86 0 8 -1.05 10.601655289603528 5.526524921435432 -50.73649513604889 0 0 0
28 0 8 -1.05 10.753106355431909 1.2515010135319753 -50.99390387931729 0 0 0
98 0 7 1.575 14.953876800565752 5.416108521095037 -52.92139027105441 0 0 0
94 0 7 1.575 12.84830212279753 7.611304267649859 -52.94894471286744 0 0 0
95 0 8 -1.05 12.993830472910073 5.605883564109424 -52.96118136397981 0 0 0
93 0 8 -1.05 12.74097702509376 7.661062933916349 -50.92643395382361 0 0 0
39 0 8 -1.05 15.045099220676548 3.356043775129097 -52.83370491366553 0 0 0
99 0 8 -1.05 15.025452095864376 5.525278409585055 -50.849756893502985 0 0 0
97 0 8 -1.05 14.847206749285393 7.425966259498263 -52.97620062690123 0 0 0
96 0 7 1.575 13.866189992787826 6.632894651456179 -49.80803344032729 0 0 0
31 0 6 1.05 12.776285064746595 1.3908810123007762 -50.91269514578642 0 0 0
32 0 7 1.575 12.747688724834594 3.4929372939631436 -48.76465308053213 0 0 0
37 0 7 1.575 14.879823463505698 1.3846972038268852 -48.84957944688042 0 0 0
38 0 6 1.05 14.866860072120595 3.4802805555578047 -50.80404397138194 0 0 0
35 0 8 -1.05 14.845925440480121 1.4024381414245253 -50.81128215590974 0 0 0
36 0 8 -1.05 14.7641205863686 3.3787628554703897 -48.65460402662666 0 0 0
34 0 8 -1.05 12.767469501331004 3.4830216429729455 -50.72876565727221 0 0 0
33 0 8 -1.05 12.880240736630077 1.4565428297781102 -48.722103398882844 0 0 0
30 0 8 -1.05 12.994957846918082 1.2095691719710133 -52.977991921716686 0 0 0
40 0 7 1.575 15.015716341050414 1.348988656477924 -52.836016185101144 0 0 0
60 0 7 1.575 0.05982755274517152 24.577271634479924 -52.986233868503696 1 -1 0
50 0 8 -1.05 21.279243951308388 1.1577357663565202 -53.665956200086335 0 0 0
48 0 8 -1.05 19.40337195707815 0.6171917099479701 -49.54352827751362 0 0 0
106 0 8 -1.05 19.077535556620198 5.600137348624319 -50.911713344137944 0 0 0
53 0 8 -1.05 21.529811172439366 1.8112073171909793 -47.846484999989535 0 0 0
107 0 8 -1.05 19.209549860680728 7.62296839586311 -48.44291494727856 0 0 0
54 0 8 -1.05 21.531012492778707 3.7218197990830015 -50.74780346180027 0 0 0
56 0 8 -1.05 23.482785282341762 3.452273107429159 -48.81674362203307 0 0 0
105 0 8 -1.05 17.17045973673274 7.59372832225076 -50.94202784067595 0 0 0
104 0 8 -1.05 17.126497466943718 5.702832526502839 -48.844604636640724 0 0 0
55 0 8 -1.05 23.75900604811138 1.4349911434155669 -50.73211702893693 0 0 0
109 0 7 1.575 19.145144319820467 7.594268575980209 -51.26038655853218 0 0 0
58 0 7 1.575 23.484896447997297 3.500051984883393 -50.87080039984269 0 0 0
57 0 6 1.05 23.27231433265453 1.3578108135359064 -48.80600005778755 0 0 0
52 0 6 1.05 21.31987020579583 3.6379540007302205 -48.78055810223317 0 0 0
102 0 7 1.575 17.038264466722136 5.551449798866852 -50.85072855968361 0 0 0
103 0 6 1.05 17.12264218435632 7.778352037755849 -48.845687034522896 0 0 0
108 0 6 1.05 19.16622623418292 5.57162276802747 -48.84477322104865 0 0 0
51 0 7 1.575 22.74869406756443 0.9795251316041242 -52.407868751854394 0 0 0
116 0 7 1.575 22.23159544576621 6.4004234440876004 -51.67188961269895 0 0 0
45 0 7 1.575 18.320455338820697 2.280372866957983 -49.95829420742352 0 0 0
117 0 8 -1.05 23.02538062212768 7.612409369525732 -52.90787190384121 0 0 0
119 0 8 -1.05 23.763906732390826 5.522600303779798 -50.9033836383346 0 0 0
59 0 8 -1.05 23.322166110499936 2.8966519355447673 -52.82510646501804 0 0 0
113 0 8 -1.05 21.061945289744017 7.548276994676293 -50.67460262160976 0 0 0
44 0 8 -1.05 16.9575989722231 1.3406272363024132 -53.324290813879564 0 0 0
110 0 8 -1.05 19.43745906659574 7.863581365020933 -53.144781848872704 0 0 0
115 0 8 -1.05 21.35492431491501 5.288095411316352 -52.979628414863264 0 0 0
46 0 8 -1.05 19.057639830715484 2.652973059246815 -51.88887292266811 0 0 0
47 0 6 1.05 19.25961994113021 1.4047773430731405 -53.52313852573901 0 0 0
114 0 6 1.05 21.33594169221211 8.100014482773595 -53.90788394477911 0 0 0
43 0 6 1.05 17.109125836769678 3.235461047525056 -52.63889107568035 0 0 0
118 0 6 1.05 22.95527582992646 4.5262063067491525 -53.94649903949672 0 0 0
111 0 7 1.575 20.108765002542086 4.267219586080437 -51.91479727781665 0 0 0
42 0 8 -1.05 16.943099652475503 3.5391858027452714 -50.54801558606041 0 0 0
101 0 8 -1.05 16.9217368645186 5.243184243019875 -52.77785237733175 0 0 0
140 0 7 1.575 7.511767471110424 8.77460668862445 -52.151248462795714 0 0 0
128 0 8 -1.05 2.3427513725525695 9.600668432818525 -50.924354159128164 0 0 0
130 0 8 -1.05 4.308116259570093 9.64980227652655 -52.98152548112967 0 0 0
123 0 7 1.575 0.15283207846898414 11.918159408178541 -52.94092240479457 0 0 0
127 0 6 1.05 2.260970703494869 9.814580064800507 -53.15970970308061 0 0 0
126 0 8 -1.05 2.0953662457840796 11.840651521656735 -52.907332803055105 0 0 0
124 0 8 -1.05 0.20777092399764308 9.953767339863557 -53.14204223305671 0 0 0
139 0 8 -1.05 6.67622065161397 12.088081442217366 -52.975952556240244 0 0 0
125 0 7 1.575 1.2386375918178445 10.758691186243603 -49.89108679284593 0 0 0
131 0 7 1.575 4.362608089168803 9.85624355683219 -51.084108869518836 0 0 0
132 0 7 1.575 4.3052121311015386 11.85286064189626 -48.792946644555045 0 0 0
137 0 6 1.05 6.48756712819894 9.8139173309536 -48.88545387577199 0 0 0
138 0 6 1.05 6.432496026977333 11.900222507008598 -50.985199737312655 0 0 0
135 0 8 -1.05 6.382713514018393 9.785416225580143 -50.911118888388 0 0 0
136 0 8 -1.05 6.310285659694195 11.831965286130327 -48.67319943558734 0 0 0
134 0 8 -1.05 4.293703983748983 11.836575358393944 -50.76889717253613 0 0 0
133 0 8 -1.05 4.419381499556348 9.817462401488962 -48.88131884902465 0 0 0
122 0 8 -1.05 0.0673899636443457 11.904270473353332 -50.86738869063789 0 0 0
191 0 7 1.575 3.2821197892336795 13.024314708072573 -52.04328629569861 0 0 0
198 0 7 1.575 6.492892786164943 14.054645334702846 -52.911724331551376 0 0 0
194 0 6 1.05 4.3228479277882625 16.13747941136041 -53.33359364847739 0 0 0
195 0 8 -1.05 4.538118198061263 14.129901655374168 -52.919539231829226 0 0 0
190 0 8 -1.05 2.2666773410768313 16.344499055953495 -52.88318623260517 0 0 0
193 0 8 -1.05 4.191480976348959 16.350291414336105 -50.64052522112311 0 0 0
199 0 8 -1.05 6.550877241510557 13.99291235814718 -50.84906413174024 0 0 0
197 0 8 -1.05 6.40516624921959 16.011231546533292 -52.95678696504697 0 0 0
196 0 7 1.575 5.344984669666057 15.07143832995655 -49.857938269010674 0 0 0
188 0 6 1.05 2.217391842096186 14.020615172478191 -48.800181695844984 0 0 0
183 0 7 1.575 0.08681214753204203 16.18306764292497 -48.81415902409738 0 0 0
182 0 6 1.05 0.17587161319094016 14.034307549405568 -50.96658871704056 0 0 0
189 0 7 1.575 2.235644364548723 16.168696210397616 -50.968882771627875 0 0 0
184 0 8 -1.05 0.12501196302840703 14.208196232707209 -48.73348603036226 0 0 0
185 0 8 -1.05 0.16187915300714448 16.275416482950366 -50.766898226434314 0 0 0
187 0 8 -1.05 2.0679544757343877 16.172041673074542 -48.73917721643087 0 0 0
186 0 8 -1.05 2.2612549921066103 14.17692273164202 -50.810521590821 0 0 0
181 0 8 -1.05 25.39844183935672 13.883233903211101 -52.955816253823066 -1 0 0
142 0 8 -1.05 8.622354166103852 11.975320176417522 -50.90872199885329 0 0 0
148 0 8 -1.05 10.756593072870256 9.743313460000595 -50.94215067341035 0 0 0
143 0 7 1.575 8.61135336010227 11.907526338217112 -52.95643395492263 0 0 0
147 0 7 1.575 10.727223043210504 9.745359112415375 -52.988072284881376 0 0 0
146 0 8 -1.05 10.594945746917126 11.733835263687054 -53.08724405994774 0 0 0
144 0 8 -1.05 8.751751762911224 9.916200765920873 -53.0094327044843 0 0 0
145 0 7 1.575 9.636840894517558 10.799307996664476 -49.828797769117855 0 0 0
201 0 8 -1.05 8.512855222427568 13.88356577105594 -52.93602282147421 0 0 0
211 0 7 1.575 11.783592227276593 12.90994086111287 -52.24556413251362 0 0 0
210 0 8 -1.05 11.128308004969522 16.26781610325714 -52.825885567643596 0 0 0
208 0 7 1.575 10.731903533451401 13.995665054423663 -48.778481541273365 0 0 0
203 0 6 1.05 8.589906563109738 16.137231485596438 -48.82231535842366 0 0 0
202 0 6 1.05 8.58814392433858 14.09142381743257 -50.941404535557766 0 0 0
209 0 7 1.575 10.776349426221635 16.248129422212333 -50.940455542139915 0 0 0
204 0 8 -1.05 8.764437422944459 14.053189807912638 -48.7485241103342 0 0 0
205 0 8 -1.05 8.799710978595463 16.192624156855487 -50.84449531960772 0 0 0
207 0 8 -1.05 10.746357242116112 15.992605624665597 -48.793081070579476 0 0 0
206 0 8 -1.05 11.138908062188195 14.175508885853414 -50.741852171203945 0 0 0
160 0 7 1.575 15.980461856737245 8.708554278431905 -52.130042528318924 0 0 0
150 0 8 -1.05 12.704349566846027 9.591410226059724 -52.984155630707505 0 0 0
159 0 8 -1.05 15.08560538780222 12.04771483913485 -52.899548014650705 0 0 0
151 0 6 1.05 12.861956135443119 9.741183932714842 -50.973932915314094 0 0 0
152 0 7 1.575 12.80170961078049 11.824625036350845 -48.796959458817184 0 0 0
157 0 6 1.05 14.984662219799372 9.798959501798596 -48.836086281704425 0 0 0
158 0 7 1.575 14.994800376754563 11.825124205383753 -50.989126616068546 0 0 0
155 0 8 -1.05 14.965631055950828 9.840054183798712 -50.88268283316352 0 0 0
156 0 8 -1.05 14.787540276035141 11.868566790544786 -48.83790440507988 0 0 0
154 0 8 -1.05 12.931848319367457 12.067526549068441 -50.809742627970756 0 0 0
153 0 8 -1.05 12.833826491863876 9.880470416168029 -48.77837109916581 0 0 0
218 0 6 1.05 15.042788642947508 14.068355957616768 -53.35956160847248 0 0 0
214 0 7 1.575 13.071697054170507 16.251587414904055 -52.985589207443205 0 0 0
215 0 8 -1.05 13.094693054031566 14.262103908553815 -52.63367594292565 0 0 0
213 0 8 -1.05 13.00160307447593 16.342716856280976 -50.82790782689333 0 0 0
219 0 8 -1.05 15.084967507408754 13.848213785706182 -50.59413570283873 0 0 0
217 0 8 -1.05 15.008171344419644 16.122157513668988 -53.01782111025614 0 0 0
216 0 7 1.575 13.240225025459628 14.445672556549846 -50.64286072888415 0 0 0
173 0 8 -1.05 21.436962318508755 9.791097922922106 -48.87624738961576 0 0 0
174 0 8 -1.05 21.245264972290023 11.883713156387415 -50.81515171839101 0 0 0
176 0 8 -1.05 23.28628388954649 11.731268794186402 -48.75643075542917 0 0 0
175 0 8 -1.05 23.447104155408276 9.632848611730648 -50.851729163863055 0 0 0
178 0 6 1.05 23.394223329507447 11.843637413522409 -51.03156451658123 0 0 0
177 0 7 1.575 23.44562568170612 9.751510073096368 -48.903187752493004 0 0 0
172 0 7 1.575 21.28843943712124 11.814486512416048 -48.86849382794889 0 0 0
171 0 6 1.05 21.36881859741806 9.83733084416081 -51.163773897941255 0 0 0
165 0 7 1.575 18.164680794967175 10.79786957054374 -49.887754162820634 0 0 0
179 0 8 -1.05 23.624287937704793 12.030161373521551 -53.00322332903675 0 0 0
164 0 8 -1.05 17.173623165916073 9.87217743152673 -53.07434395100364 0 0 0
166 0 8 -1.05 18.990320250176904 11.774246947304281 -52.994379986857204 0 0 0
167 0 7 1.575 19.15154327947222 9.839072199604272 -53.037429970362254 0 0 0
163 0 7 1.575 17.03979822247707 11.867891910578109 -53.054542477609886 0 0 0
170 0 8 -1.05 21.07927098560044 9.892141014389269 -53.14307673987949 0 0 0
168 0 8 -1.05 19.167383988046574 9.586357605462206 -51.012506402536395 0 0 0
162 0 8 -1.05 17.002950599794126 11.889404469841628 -50.96977811786616 0 0 0
180 0 7 1.575 24.441064883825156 8.779247768890611 -52.31492622489912 0 0 0
226 0 8 -1.05 19.18318266364187 14.099603164534598 -50.90887561923108 0 0 0
227 0 8 -1.05 19.090001723269605 15.94031993675187 -48.7903939498773 0 0 0
225 0 8 -1.05 17.166121890068823 16.2073570834336 -50.76851059287482 0 0 0
224 0 8 -1.05 17.13975037408028 14.023270378383927 -48.456109506531085 0 0 0
229 0 7 1.575 19.225945687621905 16.13367866777508 -50.894755356681834 0 0 0
222 0 6 1.05 17.145461759374424 14.127264131923722 -51.29871914288352 0 0 0
223 0 7 1.575 17.126060860051926 16.038983727605984 -48.79516614273511 0 0 0
228 0 6 1.05 19.205743193054133 13.87584575575844 -48.934512528906126 0 0 0
236 0 7 1.575 22.36090063854692 15.056762381588703 -49.863575516986856 0 0 0
237 0 8 -1.05 23.297260474713404 15.99039590628501 -52.915604714711705 0 0 0
239 0 8 -1.05 23.500576518177226 13.942761187439942 -50.87234926867464 0 0 0
233 0 8 -1.05 21.21796856461334 16.35972299131534 -50.66110547084327 0 0 0
230 0 8 -1.05 19.274175594837107 16.196683780799834 -52.80175652438976 0 0 0
235 0 8 -1.05 21.48516195517384 14.059045898975159 -53.02966271395835 0 0 0
234 0 6 1.05 21.28195150783207 16.066439221428592 -53.26603439573137 0 0 0
238 0 7 1.575 23.439515784387922 14.008532180552727 -52.92931057755459 0 0 0
231 0 7 1.575 20.237289574248035 12.949368654592014 -52.153010789545 0 0 0
221 0 8 -1.05 17.00481444787572 13.793264614081833 -53.239160969270166 0 0 0
260 0 7 1.575 7.632712187362075 17.178888628841342 -52.13199167250239 0 0 0
248 0 8 -1.05 2.260288535332256 18.27390882806533 -50.98211205570735 0 0 0
250 0 8 -1.05 4.058076304382143 18.190547932268892 -53.30620482885229 0 0 0
311 0 7 1.575 3.3455523198666692 21.35900432595041 -52.260635380795584 0 0 0
318 0 6 1.05 6.552375043702637 22.421444754020808 -53.29450262756192 0 0 0
243 0 7 1.575 0.0910148884876263 20.456031280439696 -53.08630050456799 0 0 0
314 0 7 1.575 4.414157749847018 24.54332944107895 -53.21277215600744 0 0 0
247 0 7 1.575 2.1475235013247214 18.28756459730245 -53.066093594206784 0 0 0
246 0 8 -1.05 2.0152468659959735 20.31060061935308 -53.105926302830724 0 0 0
315 0 8 -1.05 4.401842306875403 22.631583927236697 -53.17177807844795 0 0 0
310 0 8 -1.05 2.094477018816782 24.648286903378438 -53.06039125094757 0 0 0
244 0 8 -1.05 0.17081940426659495 18.477644668408814 -52.98897013750678 0 0 0
313 0 8 -1.05 4.217754737799741 24.658003493105063 -51.1254724480905 0 0 0
259 0 8 -1.05 6.7826189338540965 20.385234323385372 -53.02559714390405 0 0 0
319 0 8 -1.05 6.601555462781978 22.326624188471314 -50.9333539301249 0 0 0
317 0 8 -1.05 6.344048804816667 24.490819357805783 -53.04910733999104 0 0 0
245 0 7 1.575 1.1357353114083075 19.34244956716245 -49.885950239625096 0 0 0
316 0 7 1.575 5.454479199318345 23.587240138386996 -50.14508394987574 0 0 0
251 0 6 1.05 4.479660926669742 18.23932997857272 -51.38175409347479 0 0 0
308 0 6 1.05 2.2397300478460007 22.445108547862674 -48.954407733268674 0 0 0
303 0 6 1.05 25.37803790713919 24.620335253626546 -48.94762859540139 -1 0 0
302 0 7 1.575 0.04722865367726308 22.458391709442544 -50.91492168713113 0 0 0
252 0 6 1.05 4.293380276678479 20.303285037077895 -49.12471363514801 0 0 0
257 0 7 1.575 6.449068834834796 18.213292175435374 -48.91934541739672 0 0 0
258 0 7 1.575 6.49471905213771 20.339343688560753 -51.12873258781555 0 0 0
309 0 7 1.575 2.292473721338687 24.4990160882249 -51.11863517685515 0 0 0
255 0 8 -1.05 6.536880152766604 18.29662085998364 -50.87411363227537 0 0 0
304 0 8 -1.05 0.15328729849746464 22.55834570139014 -48.891157556465835 0 0 0
305 0 8 -1.05 0.31236291498016006 24.49814013833341 -50.94230890608613 0 0 0
256 0 8 -1.05 6.402985703431184 20.233885114133027 -48.9442173003057 0 0 0
254 0 8 -1.05 4.486601086777349 20.316982284635493 -51.090333962792556 0 0 0
307 0 8 -1.05 2.1626783596752235 24.6603538748675 -48.574430160627585 0 0 0
253 0 8 -1.05 4.539521714455436 18.405016913119407 -48.44437955056221 0 0 0
306 0 8 -1.05 2.169319782217335 22.510211869461425 -50.979294308323475 0 0 0
301 0 8 -1.05 25.428821804621208 22.598755002005028 -52.88979762460037 -1 0 0
242 0 8 -1.05 25.439965400643093 20.49260103088239 -50.95319142408145 -1 0 0
326 0 8 -1.05 10.837243486512985 22.49342087965489 -50.84898946771354 0 0 0
327 0 8 -1.05 10.612369725900543 24.479101622949496 -48.71512003920592 0 0 0
325 0 8 -1.05 8.620679610806985 24.615008462148694 -50.920372926195746 0 0 0
324 0 8 -1.05 8.747603394425726 22.612597129268813 -48.73871555213621 0 0 0
329 0 6 1.05 10.67047544149607 24.562555234313255 -51.23021206996622 0 0 0
322 0 6 1.05 8.656176446459602 22.536504243111803 -51.24886476828914 0 0 0
323 0 7 1.575 8.613744409232675 24.62432439898967 -48.97928952513005 0 0 0
328 0 7 1.575 10.71858231861899 22.492003970800926 -48.909245178061134 0 0 0
265 0 7 1.575 9.630026885387393 19.27088057530366 -49.94075232269202 0 0 0
264 0 8 -1.05 8.865925412117349 18.375693478235828 -52.92870233841669 0 0 0
330 0 8 -1.05 11.066883817444552 24.88171001356076 -53.17910092374313 0 0 0
266 0 8 -1.05 10.722577913479705 20.277080813631862 -52.908858409790746 0 0 0
267 0 6 1.05 10.866347156791496 18.26438558780157 -53.33122269671999 0 0 0
263 0 7 1.575 8.75099706649069 20.332043837979885 -53.04533233199829 0 0 0
321 0 8 -1.05 8.610680117319095 22.26933889547575 -53.20141195977593 0 0 0
262 0 8 -1.05 8.537296126461872 20.44255182191739 -50.931540015933216 0 0 0
268 0 8 -1.05 11.019228627531948 18.177576084861993 -50.584131523889944 0 0 0
331 0 7 1.575 11.958795872903282 21.468427932611608 -52.140992471778866 0 0 0
280 0 7 1.575 16.26051137412473 17.31984349190709 -52.2150491836504 0 0 0
273 0 8 -1.05 13.079170827061148 18.45033130391919 -48.56677270691158 0 0 0
274 0 8 -1.05 13.153215891376343 20.45647273129435 -50.75724604373869 0 0 0
276 0 8 -1.05 13.760532664899962 20.571206541932728 -47.08198230377321 0 0 0
275 0 8 -1.05 15.244836670798023 18.529564256783516 -50.96448563694236 0 0 0
278 0 7 1.575 15.134235966293431 20.509795421042416 -51.02720072380041 0 0 0
277 0 6 1.05 14.796432256820164 17.60506963626308 -49.27491844622873 0 0 0
272 0 7 1.575 12.7211504657502 20.333878910921346 -48.89040192725686 0 0 0
271 0 6 1.05 12.978003756769091 18.415032902808022 -51.21466256951181 0 0 0
336 0 7 1.575 13.818017723076926 23.58428038395183 -49.91448673129835 0 0 0
337 0 8 -1.05 14.961523152913182 24.754863206278056 -53.06434354304865 0 0 0
339 0 8 -1.05 15.122550854076229 22.556319122842947 -50.839322684409574 0 0 0
279 0 8 -1.05 15.297519599345428 20.800451942297265 -52.881758376463054 0 0 0
333 0 8 -1.05 12.76056114562405 24.737358682353626 -50.9555264724912 0 0 0
335 0 8 -1.05 13.197050418160652 22.737878188200007 -52.86678317727328 0 0 0
334 0 7 1.575 12.961440092052511 24.658638366374827 -52.962355812263304 0 0 0
270 0 8 -1.05 12.906829208975337 18.163304334819315 -53.15999023116109 0 0 0
338 0 7 1.575 15.185049604706666 22.744211149951976 -52.89099733039784 0 0 0
346 0 8 -1.05 19.781457107455918 23.055471600739104 -50.58591574023683 0 0 0
293 0 8 -1.05 21.250910690727796 18.66169188795854 -48.101950931651444 0 0 0
347 0 8 -1.05 17.551392446702966 23.482911526884322 -48.157736279825976 0 0 0
294 0 8 -1.05 21.238530051245412 20.26663946518385 -50.907008762170484 0 0 0
296 0 8 -1.05 23.25192890440279 20.225388074237067 -48.12843157003479 0 0 0
345 0 8 -1.05 17.570006283924076 24.744346561879322 -51.057494237101594 0 0 0
344 0 8 -1.05 15.50578018632077 22.603274969731164 -46.498626388135804 0 0 0
295 0 8 -1.05 23.218891149923042 18.34336934951234 -50.97608818990118 0 0 0
349 0 7 1.575 19.549286740440603 24.88962254551923 -51.18424311515072 0 0 0
298 0 6 1.05 23.27969455288214 20.38441345897493 -51.37052690557588 0 0 0
297 0 6 1.05 23.480286393828735 18.289832921805846 -49.00510533753141 0 0 0
292 0 7 1.575 21.09949507449807 20.452276572139265 -49.0109742834749 0 0 0
342 0 6 1.05 17.26199990924042 24.706579685782767 -53.09344024810964 0 0 0
343 0 7 1.575 16.796671151225947 24.785556106285195 -49.37494820193686 0 0 0
348 0 6 1.05 18.20783156431094 22.146694017521284 -49.69624043738927 0 0 0
291 0 7 1.575 21.224347633744273 18.254760229718222 -51.326316120643526 0 0 0
356 0 7 1.575 22.2279072367727 23.6753725552105 -50.06650027334133 0 0 0
285 0 7 1.575 17.941054274311917 19.375351303442553 -49.87506071361836 0 0 0
357 0 8 -1.05 23.528148634404822 24.725726722427083 -53.18065254070853 0 0 0
359 0 8 -1.05 23.48793465317247 22.480968943406058 -50.900781942548925 0 0 0
299 0 8 -1.05 23.646870970534845 20.651156153127335 -53.280268586396815 0 0 0
353 0 8 -1.05 21.53921996334439 25.10394047127149 -51.215124452019914 0 0 0
284 0 8 -1.05 17.419776816068477 18.62613653216273 -53.02939758577493 0 0 0
350 0 8 -1.05 19.290265467147382 24.905957022362422 -53.10338521884565 0 0 0
355 0 8 -1.05 21.249035998805322 22.622935385334358 -52.97278483945841 0 0 0
286 0 8 -1.05 18.327016888952063 20.801164078508155 -51.31373178001217 0 0 0
287 0 6 1.05 19.089695025167877 17.880833145751566 -53.79198796015318 0 0 0
354 0 6 1.05 21.21605615179185 24.537280902274855 -53.59463259766515 0 0 0
283 0 6 1.05 17.266577689168596 20.66577586877548 -53.17844782641668 0 0 0
358 0 6 1.05 23.26785838760885 22.60826335757752 -53.090677606693916 0 0 0
351 0 7 1.575 20.086249123731367 21.59230499881002 -51.8596620813173 0 0 0
290 0 8 -1.05 20.96206422065865 18.19403868010948 -53.19885154151658 0 0 0
288 0 8 -1.05 19.35627597734977 18.18576047670659 -50.48605583181069 0 0 0
282 0 8 -1.05 16.25335381462251 20.56779612595604 -49.34418210357469 0 0 0
341 0 8 -1.05 17.05667592145318 22.721888294300317 -53.38008080933216 0 0 0
300 0 7 1.575 24.494178198780716 17.205035428573595 -52.116437382742745 0 0 0
416 0 7 1.575 7.3925856117679345 4.490434378009127 -47.75541590446497 0 0 0
368 0 6 1.05 2.100045078767528 3.6064181504256774 -46.73425813622469 0 0 0
415 0 6 1.05 6.441462649825721 7.618088687681638 -46.57220859746231 0 0 0
361 0 7 1.575 0.11640338550471228 1.3820164465404579 -46.76469282071479 0 0 0
408 0 7 1.575 4.32142611396021 5.4732151638131326 -46.61305156634719 0 0 0
371 0 8 -1.05 4.155922407257021 3.5113758109916873 -46.604016976652225 0 0 0
411 0 8 -1.05 4.310527660251928 7.485676989106719 -46.64864540375824 0 0 0
80 0 8 -1.05 6.386221697640748 7.769837980646196 -48.588564474288546 0 0 0
72 0 8 -1.05 4.131480946917892 5.40770694595108 -48.5655031050472 0 0 0
365 0 8 -1.05 2.1774787733560586 1.3398958842346864 -46.61315069951458 0 0 0
406 0 8 -1.05 2.2330478589052425 5.618809314304327 -46.31371864641161 0 0 0
412 0 8 -1.05 6.30371413035439 5.500924418940101 -46.48634501817713 0 0 0
364 0 8 -1.05 0.07539639464681187 3.353227686042666 -46.57425632576492 0 0 0
9 0 8 -1.05 2.4054494142593654 3.2738957418965113 -48.720894999325694 0 0 0
373 0 8 -1.05 6.417126324580424 1.0104126151306774 -46.38185446937297 0 0 0
404 0 8 -1.05 0.04206323927063915 7.866164533093448 -46.34852672501728 0 0 0
1 0 8 -1.05 0.3062467082927378 1.2497596546417147 -48.7399088056848 0 0 0
372 0 7 1.575 4.577247415963883 1.6462709837456828 -46.56994232648724 0 0 0
405 0 7 1.575 1.4208166475822142 7.037796537591874 -47.38706636997714 0 0 0
369 0 7 1.575 2.3515397941346983 1.2539642268064985 -48.79156448812295 0 0 0
663 0 7 1.575 2.24661920433718 5.37976791208239 -44.30122702072482 0 0 0
414 0 6 1.05 6.23614417051596 5.373969539651812 -44.46413278226731 0 0 0
362 0 6 1.05 0.012035954664384008 3.4149898493477506 -44.538780436858715 0 0 0
409 0 7 1.575 4.2307778700067376 7.749577290044098 -44.702798434911365 0 0 0
367 0 7 1.575 2.2227069623255016 1.4314790998025613 -44.622081326137824 0 0 0
366 0 8 -1.05 2.0584916506226416 3.4120423096077364 -44.460918945279204 0 0 0
410 0 8 -1.05 4.175364309766153 5.767976001797421 -44.506113225367216 0 0 0
407 0 8 -1.05 2.107309385342656 7.653536619107923 -44.179751195605746 0 0 0
363 0 8 -1.05 0.25936742027889526 1.3257033574992432 -44.55265244145218 0 0 0
665 0 8 -1.05 4.1109677778104095 7.803426061480186 -42.136578627445935 0 0 0
374 0 8 -1.05 6.674418231586747 3.2320389410174526 -44.35216446734444 0 0 0
667 0 8 -1.05 6.540362309167117 5.4404480832303035 -42.22188397009562 0 0 0
413 0 8 -1.05 6.19545016009123 7.572963835137332 -44.375486079319295 0 0 0
615 0 7 1.575 1.398083273743149 2.4580735735204002 -41.47597334848712 0 0 0
666 0 7 1.575 5.308980347024194 6.588872837404474 -41.33920876941716 0 0 0
618 0 7 1.575 4.323938364187478 1.335974691236219 -42.6426533581164 0 0 0
655 0 6 1.05 0.04005739305487388 5.470195690813307 -42.186511733574335 0 0 0
625 0 6 1.05 6.428261270275605 3.411651133847845 -42.3851517846225 0 0 0
662 0 7 1.575 2.1791656021597903 7.716663036694268 -42.19821227638777 0 0 0
622 0 8 -1.05 6.298249341012545 1.224859519861582 -42.51742423712748 0 0 0
658 0 8 -1.05 0.14306640452604605 7.806846733641679 -42.06286409774133 0 0 0
621 0 8 -1.05 4.46719036532585 3.06982166265805 -41.88123110581707 0 0 0
659 0 8 -1.05 2.059103799760736 5.729144387878887 -42.26152957442509 0 0 0
616 0 8 -1.05 2.360365965545094 1.1819997310364285 -42.57078385302511 0 0 0
370 0 8 -1.05 4.287615598652342 1.1855078150161937 -44.584218911038676 0 0 0
403 0 8 -1.05 0.06925014514064629 5.648368203695945 -44.22343286994713 0 0 0
614 0 8 -1.05 25.389595535190068 3.402605973619923 -42.29959435135999 -1 0 0
626 0 7 1.575 6.788641657776103 1.182510557384347 -44.448342750971264 0 0 0
418 0 8 -1.05 8.501064460783684 7.7892961376018475 -46.63454912816142 0 0 0
21 0 8 -1.05 8.564314568288925 1.1734383674729842 -48.793446449791325 0 0 0
382 0 6 1.05 10.664066905089042 3.4335710055211406 -46.69163316164482 0 0 0
375 0 6 1.05 8.584029395330827 1.3582578097985134 -46.788404214346414 0 0 0
379 0 8 -1.05 10.663496013631866 1.3077037108779441 -46.55743403891876 0 0 0
420 0 8 -1.05 10.741571643099721 5.513334186601747 -46.658077431223596 0 0 0
378 0 8 -1.05 8.566008775160574 3.4400383144364683 -46.544189380980995 0 0 0
29 0 8 -1.05 10.723708898405311 3.4947812075758913 -48.72422973039711 0 0 0
419 0 7 1.575 9.60920900759105 6.639151434793481 -45.623192367085146 0 0 0
383 0 7 1.575 11.747978046488134 0.24557926381481104 -47.77426378495154 0 0 0
417 0 8 -1.05 8.616507435552242 5.487692822185602 -44.37314681477528 0 0 0