LAMMPS data file via write_data, version 29 Sep 2021, timestep = 3663427

1332 atoms
10 atom types
180 bonds
6 bond types
324 angles
6 angle types
0 dihedrals
2 dihedral types
36 impropers
2 improper types

0 25.44 xlo xhi
0 25.44 ylo yhi
35.929417 100.267417 zlo zhi

Masses

1 12.011
2 1.008
3 15.9994
4 15.9994
5 1.008
6 55.845
7 55.845
8 15.9994
9 15.9994
10 1.008

Pair Coeffs # lj/cut/coul/long

1 0.0988 3.31521
2 0.0161 2.4473
3 0.1463 3.04812
4 0.093 3.24287
5 0.0047 0.537925
6 9.0298e-07 4.9062
7 9.0298e-07 4.9062
8 0.1554 3.16554
9 0.1554 3.16554
10 0 0

Bond Coeffs # harmonic

1 361.8 1.105
2 652.57 1.218
3 383.13 1.351
4 563.51 0.973
5 554.135 1
6 0 2.08

Angle Coeffs # harmonic

1 51.617 106.55
2 65.93 123.65
3 65.262 109.49
4 115.745 122.1
5 118.817 130.25
6 30 109.47

Dihedral Coeffs # fourier

1 1 2.3 2 180
2 2 2.3 2 180 1.9 1 0

Improper Coeffs # cvff

1 10.5 -1 2
2 10.5 -1 2

Atoms # full

169 0 1 0.731 3.21093178391637 7.75116636326985 57.12358220476155 0 0 0
168 0 2 -0.123 3.243527656838039 7.718503154000621 56.025705851730976 0 0 0
160 0 1 0.731 7.45558291865487 3.500978534558019 57.12366187387337 0 0 0
159 0 2 -0.123 7.499819688545094 3.4563636196229894 56.02659915520726 0 0 0
317 0 1 0.731 11.693519856372491 7.743281118875154 57.12355549508446 0 0 0
316 0 2 -0.123 11.733379534851531 7.702838940160692 56.02616255868637 0 0 0
604 0 1 0.731 7.450051175879055 11.98610691017962 57.12367020197538 0 0 0
603 0 2 -0.123 7.487095100094398 11.948440591143296 56.02609225809343 0 0 0
17 0 8 -1.05 0.04434199999999855 2.4362749999999993 59.655252 0 0 0
19 2 7 1.575 0.08117799999999864 4.51944 59.618416999999994 0 0 0
3 0 8 -1.05 0.11801299999999859 6.602605 59.581582000000004 0 0 0
22 0 9 -0.975 2.1120549359794047 4.608650590229668 59.56036653261716 0 0 0
789 2 7 1.575 11.741178000000001 11.939440000000001 60.678416999999996 0 0 0
23 0 10 0.425 2.3414473764028316 4.379162553132531 58.5655139828247 0 0 0
156 0 8 -1.05 4.284343000000001 6.676274999999998 59.655252 0 0 0
163 0 9 -0.975 6.551713072874368 4.40856689568378 59.857735241070685 0 0 0
153 2 7 1.575 2.2011779999999996 6.639439999999998 59.618416999999994 0 0 0
162 2 7 1.575 6.441177999999999 2.3994399999999994 59.618416999999994 0 0 0
176 2 7 1.575 7.5011779999999995 7.69944 60.678416999999996 0 0 0
197 2 7 1.575 3.261178 3.45944 60.678416999999996 0 0 0
166 0 3 -0.804 2.4334573933863837 7.008959189240949 57.71582008725655 0 0 0
150 0 10 0.425 6.581265989237698 8.619126839697252 58.56566452182108 0 0 0
158 0 3 -0.804 6.674010986698339 2.7629877175347723 57.7155288297112 0 0 0
161 0 10 0.425 5.980776849202729 4.979547673025955 59.19625342715035 0 0 0
1043 0 9 -0.975 2.3120369897190964 0.16871512116575874 59.857355657210014 0 1 0
1045 2 7 1.575 4.321178000000001 0.27943999999999747 59.618416999999994 0 1 0
1037 0 9 -0.975 6.351892952772824 0.36868446033232066 59.560990740356594 0 1 0
1060 0 8 -1.05 4.358013000000001 2.3626049999999985 59.581582000000004 0 1 0
300 0 3 -0.804 12.432272520088276 8.524069142886521 57.71544153821852 0 0 0
1042 0 10 0.425 1.7410314861777902 0.7397165831228532 59.19597117524562 0 1 0
165 0 8 -1.05 8.524341999999999 2.4362749999999993 59.655252 0 0 0
167 2 7 1.575 8.561177999999998 4.51944 59.618416999999994 0 0 0
151 0 8 -1.05 8.598012999999998 6.602605 59.581582000000004 0 0 0
170 0 9 -0.975 10.591834365997364 4.60842201819194 59.56047169552382 0 0 0
164 0 3 -0.804 8.191789340613889 4.284098772859573 57.715501271845405 0 0 0
171 0 10 0.425 10.821247908184267 4.378983889423653 58.565634379643924 0 0 0
301 2 7 1.575 10.681178 6.639439999999998 59.618416999999994 0 0 0
345 2 7 1.575 11.741178000000001 3.45944 60.678416999999996 0 0 0
314 0 3 -0.804 10.913406398515532 7.00403990840427 57.715649212648216 0 0 0
1191 0 9 -0.975 10.791773107911723 0.16872363153950035 59.85793159200838 0 1 0
1190 0 10 0.425 10.220659619071727 0.7396719613327458 59.19655370171044 0 1 0
461 0 8 -1.05 0.04434199999999855 10.916274999999999 59.655252 0 0 0
1038 0 10 0.425 6.580954932515932 0.13927164645457715 58.56603941518217 0 1 0
155 0 9 -0.975 2.3117060467100266 8.649042282973745 59.85809013130522 0 0 0
157 2 7 1.575 4.321178000000001 8.759439999999998 59.618416999999994 0 0 0
149 0 9 -0.975 6.351959606972544 8.848507231261282 59.560543860896466 0 0 0
172 0 8 -1.05 4.358013000000001 10.842604999999999 59.581582000000004 0 0 0
152 0 3 -0.804 3.953441083344189 8.527713743206721 57.71579234735376 0 0 0
154 0 10 0.425 1.740613699799761 9.220185957202752 59.196851761373054 0 0 0
606 2 7 1.575 6.441177999999999 10.879439999999999 59.618416999999994 0 0 0
641 2 7 1.575 3.261178 11.939440000000001 60.678416999999996 0 0 0
602 0 3 -0.804 6.671574153528957 11.245217847215303 57.715860700053256 0 0 0
609 0 8 -1.05 8.524341999999999 10.916274999999999 59.655252 0 0 0
302 0 10 0.425 10.220734999848448 9.219752441437064 59.19646985831853 0 0 0
303 0 9 -0.975 10.791732110761469 8.648716210306551 59.85777296880831 0 0 0
1188 0 3 -0.804 12.432701192129134 0.04669647416620889 57.715686674855064 0 1 0
1040 0 3 -0.804 3.9582896355961896 0.043177629135758525 57.71499125986216 0 1 0
29 0 8 -1.05 0.04434199999999855 6.676274999999998 63.89525199999999 0 0 0
42 0 8 -1.05 0.04434199999999855 4.482605 61.701581999999995 0 0 0
43 2 7 1.575 0.08117799999999864 2.3994399999999994 61.73841699999999 0 0 0
45 1 7 1.575 1.1411779999999991 5.57944 62.798417 0 0 0
920 0 8 -1.05 2.1643429999999997 0.3162749999999974 63.82158199999999 0 1 0
934 0 8 -1.05 2.1643429999999997 2.3626049999999985 61.775251999999995 0 1 0
932 0 8 -1.05 0.11801299999999859 2.3626049999999985 63.82158199999999 0 1 0
919 0 8 -1.05 0.11801299999999859 0.3162749999999974 61.775251999999995 0 1 0
918 2 6 1.05 0.08117799999999864 0.27943999999999747 63.858416999999996 0 1 0
200 0 8 -1.05 4.358013000000001 4.556275 61.775251999999995 0 0 0
196 0 8 -1.05 2.2380129999999996 4.482605 63.89525199999999 0 0 0
189 0 8 -1.05 6.478012999999999 2.4362749999999993 61.701581999999995 0 0 0
185 0 8 -1.05 4.358013000000001 6.602605 63.82158199999999 0 0 0
198 0 8 -1.05 4.284343000000001 2.4362749999999993 63.89525199999999 0 0 0
173 0 8 -1.05 6.404343 6.602605 61.775251999999995 0 0 0
182 0 8 -1.05 2.2380129999999996 6.676274999999998 61.701581999999995 0 0 0
187 0 8 -1.05 6.404343 4.556275 63.82158199999999 0 0 0
174 2 6 1.05 6.441177999999999 6.639439999999998 63.858416999999996 0 0 0
195 2 6 1.05 2.2011779999999996 2.3994399999999994 63.858416999999996 0 0 0
188 2 7 1.575 6.441177999999999 4.51944 61.73841699999999 0 0 0
184 2 7 1.575 4.321178000000001 6.639439999999998 61.73841699999999 0 0 0
199 2 6 1.05 4.321178000000001 4.51944 63.858416999999996 0 0 0
1071 0 8 -1.05 4.284343000000001 0.2426039999999965 61.701581999999995 0 1 0
1063 0 8 -1.05 6.478012999999999 0.2426039999999965 63.89525199999999 0 1 0
1069 2 7 1.575 2.2011779999999996 0.27943999999999747 61.73841699999999 0 1 0
1074 1 7 1.575 5.381178 1.3394399999999997 62.798417 0 1 0
177 0 8 -1.05 8.524341999999999 6.676274999999998 63.89525199999999 0 0 0
190 0 8 -1.05 8.524341999999999 4.482605 61.701581999999995 0 0 0
191 2 7 1.575 8.561177999999998 2.3994399999999994 61.73841699999999 0 0 0
193 1 7 1.575 9.621178 5.57944 62.798417 0 0 0
1068 0 8 -1.05 10.644343 0.3162749999999974 63.82158199999999 0 1 0
1082 0 8 -1.05 10.644343 2.3626049999999985 61.775251999999995 0 1 0
1080 0 8 -1.05 8.598012999999998 2.3626049999999985 63.82158199999999 0 1 0
1067 0 8 -1.05 8.598012999999998 0.3162749999999974 61.775251999999995 0 1 0
1066 2 6 1.05 8.561177999999998 0.27943999999999747 63.858416999999996 0 1 0
344 0 8 -1.05 10.718013 4.482605 63.89525199999999 0 0 0
330 0 8 -1.05 10.718013 6.676274999999998 61.701581999999995 0 0 0
343 2 6 1.05 10.681178 2.3994399999999994 63.858416999999996 0 0 0
1217 2 7 1.575 10.681178 0.27943999999999747 61.73841699999999 0 1 0
32 0 8 -1.05 2.1643429999999997 8.796274999999998 63.82158199999999 0 0 0
46 0 8 -1.05 2.1643429999999997 10.842604999999999 61.775251999999995 0 0 0
44 0 8 -1.05 0.11801299999999859 10.842604999999999 63.82158199999999 0 0 0
31 0 8 -1.05 0.11801299999999859 8.796274999999998 61.775251999999995 0 0 0
30 2 6 1.05 0.08117799999999864 8.759439999999998 63.858416999999996 0 0 0
487 2 7 1.575 0.08117799999999864 10.879439999999999 61.73841699999999 0 0 0
183 0 8 -1.05 4.284343000000001 8.722603999999997 61.701581999999995 0 0 0
175 0 8 -1.05 6.478012999999999 8.722603999999997 63.89525199999999 0 0 0
181 2 7 1.575 2.2011779999999996 8.759439999999998 61.73841699999999 0 0 0
186 1 7 1.575 5.381178 9.81944 62.798417 0 0 0
633 0 8 -1.05 6.478012999999999 10.916274999999999 61.701581999999995 0 0 0
642 0 8 -1.05 4.284343000000001 10.916274999999999 63.89525199999999 0 0 0
639 2 6 1.05 2.2011779999999996 10.879439999999999 63.858416999999996 0 0 0
180 0 8 -1.05 10.644343 8.796274999999998 63.82158199999999 0 0 0
194 0 8 -1.05 10.644343 10.842604999999999 61.775251999999995 0 0 0
192 0 8 -1.05 8.598012999999998 10.842604999999999 63.82158199999999 0 0 0
179 0 8 -1.05 8.598012999999998 8.796274999999998 61.775251999999995 0 0 0
178 2 6 1.05 8.561177999999998 8.759439999999998 63.858416999999996 0 0 0
635 2 7 1.575 8.561177999999998 10.879439999999999 61.73841699999999 0 0 0
329 2 7 1.575 10.681178 8.759439999999998 61.73841699999999 0 0 0
787 2 6 1.05 10.681178 10.879439999999999 63.858416999999996 0 0 0
91 0 8 -1.05 0.04434199999999855 4.482605 70.18158199999998 0 0 0
90 0 8 -1.05 0.04434199999999855 2.4362749999999993 68.135252 0 0 0
68 2 6 1.05 0.08117799999999864 4.51944 68.09841699999998 0 0 0
92 2 7 1.575 0.08117799999999864 2.3994399999999994 70.21841699999999 0 0 0
93 1 7 1.575 1.1411779999999991 5.57944 71.27841699999999 0 0 0
58 0 8 -1.05 0.11801299999999859 6.602605 68.06158199999999 0 0 0
69 0 8 -1.05 0.11801299999999859 4.556275 66.01525199999999 0 0 0
70 0 8 -1.05 2.1643429999999997 4.556275 68.06158199999999 0 0 0
60 0 8 -1.05 2.1643429999999997 6.602605 66.01525199999999 0 0 0
57 2 7 1.575 0.08117799999999864 6.639439999999998 65.978417 0 0 0
982 0 8 -1.05 2.1643429999999997 2.3626049999999985 70.25525199999998 0 1 0
967 0 8 -1.05 0.11801299999999859 0.3162749999999974 70.25525199999998 0 1 0
944 0 8 -1.05 0.04434199999999855 0.2426039999999965 65.94158099999999 0 1 0
947 1 7 1.575 1.1411779999999991 1.3394399999999997 67.038417 0 1 0
244 0 8 -1.05 4.358013000000001 4.556275 70.25525199999998 0 0 0
231 0 8 -1.05 4.284343000000001 6.676274999999998 68.135252 0 0 0
236 0 8 -1.05 6.478012999999999 2.4362749999999993 70.18158199999998 0 0 0
237 0 8 -1.05 6.478012999999999 4.482605 68.135252 0 0 0
225 0 8 -1.05 6.404343 6.602605 70.25525199999998 0 0 0
229 0 8 -1.05 2.2380129999999996 6.676274999999998 70.18158199999998 0 0 0
235 2 7 1.575 6.441177999999999 4.51944 70.21841699999999 0 0 0
209 2 6 1.05 2.2011779999999996 6.639439999999998 68.09841699999998 0 0 0
233 2 7 1.575 4.321178000000001 6.639439999999998 70.21841699999999 0 0 0
214 2 6 1.05 6.441177999999999 2.3994399999999994 68.09841699999998 0 0 0
226 1 7 1.575 7.5011779999999995 7.69944 69.158417 0 0 0
243 1 7 1.575 3.261178 3.45944 69.158417 0 0 0
220 0 8 -1.05 2.2380129999999996 2.4362749999999993 65.94158099999999 0 0 0
203 0 8 -1.05 6.478012999999999 6.676274999999998 65.94158099999999 0 0 0
221 0 8 -1.05 4.284343000000001 4.482605 65.94158099999999 0 0 0
222 2 7 1.575 4.321178000000001 2.3994399999999994 65.978417 0 0 0
219 2 7 1.575 2.2011779999999996 4.51944 65.978417 0 0 0
224 1 7 1.575 5.381178 5.57944 67.038417 0 0 0
210 1 7 1.575 3.261178 7.69944 64.91841699999998 0 0 0
215 1 7 1.575 7.5011779999999995 3.45944 64.91841699999998 0 0 0
1120 0 8 -1.05 4.284343000000001 0.2426039999999965 70.18158199999998 0 1 0
1118 0 8 -1.05 2.2380129999999996 0.2426039999999965 68.135252 0 1 0
1099 2 6 1.05 4.321178000000001 0.27943999999999747 68.09841699999998 0 1 0
1116 2 7 1.575 2.2011779999999996 0.27943999999999747 70.21841699999999 0 1 0
1122 1 7 1.575 5.381178 1.3394399999999997 71.27841699999999 0 1 0
1101 0 8 -1.05 6.404343 2.3626049999999985 66.01525199999999 0 1 0
1089 0 8 -1.05 6.404343 0.3162749999999974 68.06158199999999 0 1 0
1100 0 8 -1.05 4.358013000000001 0.3162749999999974 66.01525199999999 0 1 0
1111 0 8 -1.05 4.358013000000001 2.3626049999999985 68.06158199999999 0 1 0
1090 2 7 1.575 6.441177999999999 0.27943999999999747 65.978417 0 1 0
239 0 8 -1.05 8.524341999999999 4.482605 70.18158199999998 0 0 0
238 0 8 -1.05 8.524341999999999 2.4362749999999993 68.135252 0 0 0
216 2 6 1.05 8.561177999999998 4.51944 68.09841699999998 0 0 0
240 2 7 1.575 8.561177999999998 2.3994399999999994 70.21841699999999 0 0 0
241 1 7 1.575 9.621178 5.57944 71.27841699999999 0 0 0
206 0 8 -1.05 8.598012999999998 6.602605 68.06158199999999 0 0 0
217 0 8 -1.05 8.598012999999998 4.556275 66.01525199999999 0 0 0
218 0 8 -1.05 10.644343 4.556275 68.06158199999999 0 0 0
208 0 8 -1.05 10.644343 6.602605 66.01525199999999 0 0 0
205 2 7 1.575 8.561177999999998 6.639439999999998 65.978417 0 0 0
1130 0 8 -1.05 10.644343 2.3626049999999985 70.25525199999998 0 1 0
1115 0 8 -1.05 8.598012999999998 0.3162749999999974 70.25525199999998 0 1 0
1092 0 8 -1.05 8.524341999999999 0.2426039999999965 65.94158099999999 0 1 0
1095 1 7 1.575 9.621178 1.3394399999999997 67.038417 0 1 0
377 0 8 -1.05 10.718013 6.676274999999998 70.18158199999998 0 0 0
357 2 6 1.05 10.681178 6.639439999999998 68.09841699999998 0 0 0
391 1 7 1.575 11.741178000000001 3.45944 69.158417 0 0 0
368 0 8 -1.05 10.718013 2.4362749999999993 65.94158099999999 0 0 0
367 2 7 1.575 10.681178 4.51944 65.978417 0 0 0
358 1 7 1.575 11.741178000000001 7.69944 64.91841699999998 0 0 0
1266 0 8 -1.05 10.718013 0.2426039999999965 68.135252 0 1 0
1264 2 7 1.575 10.681178 0.27943999999999747 70.21841699999999 0 1 0
94 0 8 -1.05 2.1643429999999997 10.842604999999999 70.25525199999998 0 0 0
79 0 8 -1.05 0.11801299999999859 8.796274999999998 70.25525199999998 0 0 0
56 0 8 -1.05 0.04434199999999855 8.722603999999997 65.94158099999999 0 0 0
59 1 7 1.575 1.1411779999999991 9.81944 67.038417 0 0 0
534 0 8 -1.05 0.04434199999999855 10.916274999999999 68.135252 0 0 0
536 2 7 1.575 0.08117799999999864 10.879439999999999 70.21841699999999 0 0 0
232 0 8 -1.05 4.284343000000001 8.722603999999997 70.18158199999998 0 0 0
230 0 8 -1.05 2.2380129999999996 8.722603999999997 68.135252 0 0 0
211 2 6 1.05 4.321178000000001 8.759439999999998 68.09841699999998 0 0 0
228 2 7 1.575 2.2011779999999996 8.759439999999998 70.21841699999999 0 0 0
234 1 7 1.575 5.381178 9.81944 71.27841699999999 0 0 0
213 0 8 -1.05 6.404343 10.842604999999999 66.01525199999999 0 0 0
201 0 8 -1.05 6.404343 8.796274999999998 68.06158199999999 0 0 0
212 0 8 -1.05 4.358013000000001 8.796274999999998 66.01525199999999 0 0 0
223 0 8 -1.05 4.358013000000001 10.842604999999999 68.06158199999999 0 0 0
202 2 7 1.575 6.441177999999999 8.759439999999998 65.978417 0 0 0
680 0 8 -1.05 6.478012999999999 10.916274999999999 70.18158199999998 0 0 0
658 2 6 1.05 6.441177999999999 10.879439999999999 68.09841699999998 0 0 0
687 1 7 1.575 3.261178 11.939440000000001 69.158417 0 0 0
664 0 8 -1.05 2.2380129999999996 10.916274999999999 65.94158099999999 0 0 0
666 2 7 1.575 4.321178000000001 10.879439999999999 65.978417 0 0 0
659 1 7 1.575 7.5011779999999995 11.939440000000001 64.91841699999998 0 0 0
242 0 8 -1.05 10.644343 10.842604999999999 70.25525199999998 0 0 0
227 0 8 -1.05 8.598012999999998 8.796274999999998 70.25525199999998 0 0 0
204 0 8 -1.05 8.524341999999999 8.722603999999997 65.94158099999999 0 0 0
207 1 7 1.575 9.621178 9.81944 67.038417 0 0 0
682 0 8 -1.05 8.524341999999999 10.916274999999999 68.135252 0 0 0
684 2 7 1.575 8.561177999999998 10.879439999999999 70.21841699999999 0 0 0
378 0 8 -1.05 10.718013 8.722603999999997 68.135252 0 0 0
376 2 7 1.575 10.681178 8.759439999999998 70.21841699999999 0 0 0
835 1 7 1.575 11.741178000000001 11.939440000000001 69.158417 0 0 0
812 0 8 -1.05 10.718013 10.916274999999999 65.94158099999999 0 0 0
115 0 8 -1.05 0.11801299999999859 4.556275 74.49525199999998 0 0 0
101 0 8 -1.05 0.04434199999999855 6.676274999999998 72.37525199999999 0 0 0
106 0 8 -1.05 2.1643429999999997 6.602605 74.49525199999998 0 0 0
103 2 7 1.575 0.08117799999999864 6.639439999999998 74.458417 0 0 0
990 0 8 -1.05 0.04434199999999855 0.2426039999999965 74.421581 0 1 0
995 0 8 -1.05 2.1643429999999997 0.3162749999999974 72.30158199999998 0 1 0
1002 0 8 -1.05 0.11801299999999859 2.3626049999999985 72.30158199999998 0 1 0
992 2 6 1.05 0.08117799999999864 0.27943999999999747 72.33841699999998 0 1 0
267 0 8 -1.05 2.2380129999999996 4.482605 72.37525199999999 0 0 0
257 0 8 -1.05 4.358013000000001 6.602605 72.30158199999998 0 0 0
266 0 8 -1.05 2.2380129999999996 2.4362749999999993 74.421581 0 0 0
268 0 8 -1.05 4.284343000000001 2.4362749999999993 72.37525199999999 0 0 0
247 0 8 -1.05 6.478012999999999 6.676274999999998 74.421581 0 0 0
269 0 8 -1.05 4.284343000000001 4.482605 74.421581 0 0 0
260 0 8 -1.05 6.404343 4.556275 72.30158199999998 0 0 0
245 2 6 1.05 6.441177999999999 6.639439999999998 72.33841699999998 0 0 0
264 2 6 1.05 2.2011779999999996 2.3994399999999994 72.33841699999998 0 0 0
270 2 7 1.575 4.321178000000001 2.3994399999999994 74.458417 0 0 0
265 2 7 1.575 2.2011779999999996 4.51944 74.458417 0 0 0
271 2 6 1.05 4.321178000000001 4.51944 72.33841699999998 0 0 0
256 1 7 1.575 3.261178 7.69944 73.398417 0 0 0
261 1 7 1.575 7.5011779999999995 3.45944 73.398417 0 0 0
1147 0 8 -1.05 6.404343 2.3626049999999985 74.49525199999998 0 1 0
1146 0 8 -1.05 4.358013000000001 0.3162749999999974 74.49525199999998 0 1 0
1136 0 8 -1.05 6.478012999999999 0.2426039999999965 72.37525199999999 0 1 0
1134 2 7 1.575 6.441177999999999 0.27943999999999747 74.458417 0 1 0
263 0 8 -1.05 8.598012999999998 4.556275 74.49525199999998 0 0 0
249 0 8 -1.05 8.524341999999999 6.676274999999998 72.37525199999999 0 0 0
254 0 8 -1.05 10.644343 6.602605 74.49525199999998 0 0 0
251 2 7 1.575 8.561177999999998 6.639439999999998 74.458417 0 0 0
1138 0 8 -1.05 8.524341999999999 0.2426039999999965 74.421581 0 1 0
1143 0 8 -1.05 10.644343 0.3162749999999974 72.30158199999998 0 1 0
1150 0 8 -1.05 8.598012999999998 2.3626049999999985 72.30158199999998 0 1 0
1140 2 6 1.05 8.561177999999998 0.27943999999999747 72.33841699999998 0 1 0
415 0 8 -1.05 10.718013 4.482605 72.37525199999999 0 0 0
414 0 8 -1.05 10.718013 2.4362749999999993 74.421581 0 0 0
412 2 6 1.05 10.681178 2.3994399999999994 72.33841699999998 0 0 0
413 2 7 1.575 10.681178 4.51944 74.458417 0 0 0
404 1 7 1.575 11.741178000000001 7.69944 73.398417 0 0 0
102 0 8 -1.05 0.04434199999999855 8.722603999999997 74.421581 0 0 0
107 0 8 -1.05 2.1643429999999997 8.796274999999998 72.30158199999998 0 0 0
114 0 8 -1.05 0.11801299999999859 10.842604999999999 72.30158199999998 0 0 0
104 2 6 1.05 0.08117799999999864 8.759439999999998 72.33841699999998 0 0 0
259 0 8 -1.05 6.404343 10.842604999999999 74.49525199999998 0 0 0
258 0 8 -1.05 4.358013000000001 8.796274999999998 74.49525199999998 0 0 0
248 0 8 -1.05 6.478012999999999 8.722603999999997 72.37525199999999 0 0 0
246 2 7 1.575 6.441177999999999 8.759439999999998 74.458417 0 0 0
710 0 8 -1.05 2.2380129999999996 10.916274999999999 74.421581 0 0 0
712 0 8 -1.05 4.284343000000001 10.916274999999999 72.37525199999999 0 0 0
708 2 6 1.05 2.2011779999999996 10.879439999999999 72.33841699999998 0 0 0
714 2 7 1.575 4.321178000000001 10.879439999999999 74.458417 0 0 0
705 1 7 1.575 7.5011779999999995 11.939440000000001 73.398417 0 0 0
250 0 8 -1.05 8.524341999999999 8.722603999999997 74.421581 0 0 0
255 0 8 -1.05 10.644343 8.796274999999998 72.30158199999998 0 0 0
262 0 8 -1.05 8.598012999999998 10.842604999999999 72.30158199999998 0 0 0
252 2 6 1.05 8.561177999999998 8.759439999999998 72.33841699999998 0 0 0
858 0 8 -1.05 10.718013 10.916274999999999 74.421581 0 0 0
856 2 6 1.05 10.681178 10.879439999999999 72.33841699999998 0 0 0
144 2 7 1.575 0.08117799999999864 4.51944 76.578417 0 0 0
143 0 8 -1.05 0.04434199999999855 2.4362749999999993 76.615252 0 0 0
127 0 8 -1.05 0.11801299999999859 6.602605 76.54158199999999 0 0 0
146 0 9 -0.975 2.090497233550537 4.63036733833805 76.3393280515428 0 0 0
145 0 3 -0.804 1.9666980529152744 6.276255277277256 78.48158816888764 0 0 0
140 0 3 -0.804 0.4481071051135839 4.755845477642587 78.48161950691488 0 0 0
147 0 10 0.425 2.661449442849039 4.059429453315035 77.0008715612901 0 0 0
993 2 7 1.575 1.1411779999999991 1.3394399999999997 75.51841699999999 0 1 0
278 2 7 1.575 2.2011779999999996 6.639439999999998 76.578417 0 0 0
286 2 7 1.575 6.441177999999999 2.3994399999999994 76.578417 0 0 0
287 0 9 -0.975 6.53037584928392 4.430249826485498 76.6362469441696 0 0 0
282 0 8 -1.05 4.284343000000001 6.676274999999998 76.615252 0 0 0
272 2 7 1.575 5.381178 5.57944 75.51841699999999 0 0 0
274 0 10 0.425 6.90169655092372 8.299269069769606 77.00036571878591 0 0 0
285 0 10 0.425 6.301298898734855 4.659991142943904 77.63110101278728 0 0 0
1172 2 7 1.575 4.321178000000001 0.27943999999999747 76.578417 0 1 0
1167 0 9 -0.975 2.2902988623009835 0.19028589480589117 76.63625310611155 0 1 0
1161 0 9 -0.975 6.330564710972715 0.38999155649765976 76.33882302705378 0 1 0
1184 0 8 -1.05 4.358013000000001 2.3626049999999985 76.54158199999999 0 1 0
1171 0 3 -0.804 6.208884974525039 2.0308149233205772 78.4810471424847 0 1 0
1165 0 3 -0.804 4.6891594623287505 0.5117817680068589 78.48108312833968 0 1 0
1164 0 10 0.425 2.060779038821526 0.41943507405663166 77.63113508331784 0 1 0
292 2 7 1.575 8.561177999999998 4.51944 76.578417 0 0 0
291 0 8 -1.05 8.524341999999999 2.4362749999999993 76.615252 0 0 0
275 0 8 -1.05 8.598012999999998 6.602605 76.54158199999999 0 0 0
294 0 9 -0.975 10.570601633479072 4.629856981723096 76.33901328128617 0 0 0
293 0 3 -0.804 10.446766368885317 6.270977845567305 78.48131187324948 0 0 0
288 0 3 -0.804 8.926673714174155 4.752207263576702 78.48126269251178 0 0 0
295 0 10 0.425 11.141667826656903 4.058705582791589 77.00025281280159 0 0 0
1141 2 7 1.575 9.621178 1.3394399999999997 75.51841699999999 0 1 0
426 2 7 1.575 10.681178 6.639439999999998 76.578417 0 0 0
1315 0 9 -0.975 10.770109821456106 0.19009498661339785 76.63664794531337 0 1 0
1312 0 10 0.425 10.540665122698377 0.4198001151384634 77.63142324736683 0 1 0
105 2 7 1.575 1.1411779999999991 9.81944 75.51841699999999 0 0 0
587 0 8 -1.05 0.04434199999999855 10.916274999999999 76.615252 0 0 0
591 0 10 0.425 2.66157057069089 12.53914537673725 77.00039173749728 0 0 0
284 2 7 1.575 4.321178000000001 8.759439999999998 76.578417 0 0 0
279 0 9 -0.975 2.2904316744511015 8.670312440936423 76.6362678739381 0 0 0
273 0 9 -0.975 6.3307211843153635 8.870203924060798 76.3388582651042 0 0 0
296 0 8 -1.05 4.358013000000001 10.842604999999999 76.54158199999999 0 0 0
283 0 3 -0.804 6.209470576801999 10.513591064540737 78.48111639573625 0 0 0
277 0 3 -0.804 4.69154045817028 8.992760995680205 78.4810875914849 0 0 0
276 0 10 0.425 2.0605705117477497 8.899332887472005 77.63111114708894 0 0 0
730 2 7 1.575 6.441177999999999 10.879439999999999 76.578417 0 0 0
253 2 7 1.575 9.621178 9.81944 75.51841699999999 0 0 0
735 0 8 -1.05 8.524341999999999 10.916274999999999 76.615252 0 0 0
739 0 10 0.425 11.14134016749498 12.538625375230094 77.00028205162393 0 0 0
427 0 9 -0.975 10.77042600872902 8.670163052199843 76.63611199127035 0 0 0
424 0 10 0.425 10.54110948910426 8.899739323658384 77.63094859878007 0 0 0
141 0 1 0.731 1.1862139334417554 5.537133206587806 79.07357126483477 0 0 0
142 0 2 -0.123 1.1457605937662967 5.577888452241341 80.17096627606512 0 0 0
1168 0 1 0.731 5.428853354512277 1.2912977459805812 79.07310888142959 0 1 0
1169 0 2 -0.123 5.38989075407638 1.330369819708662 80.17056510619184 0 1 0
289 0 1 0.731 9.669677019715378 5.528605408460443 79.07352236433921 0 0 0
290 0 2 -0.123 9.63815787464481 5.559873378758451 80.17149711433184 0 0 0
280 0 1 0.731 5.429199831587593 9.774718204633619 79.07305494608357 0 0 0
281 0 2 -0.123 5.387176330672954 9.816829068439974 80.17029000774305 0 0 0
613 0 1 0.731 3.2128165466446004 16.224510293580774 57.12364614420226 0 0 0
612 0 2 -0.123 3.2530844005337847 16.183733757948904 56.02628384457734 0 0 0
761 0 1 0.731 11.687492641319523 16.224112721455185 57.12343226896553 0 0 0
760 0 2 -0.123 11.720681738877058 16.190143065205742 56.02560136715267 0 0 0
1057 0 1 0.731 3.218251510435416 24.703713876353405 57.12295132561424 0 0 0
1056 0 2 -0.123 3.255684653926996 24.66630015558027 56.025300435835995 0 0 0
1048 0 1 0.731 7.449803768648137 20.4704363234877 57.12368765498918 0 0 0
1047 0 2 -0.123 7.483856131562501 20.43655976155119 56.02590238796549 0 0 0
615 0 10 0.425 10.821800261377243 12.859693323965114 58.565713418058714 0 0 0
746 0 10 0.425 10.22032131223826 17.699645698771004 59.19662883613614 0 0 0
463 2 7 1.575 0.08117799999999864 12.99944 59.618416999999994 0 0 0
447 0 8 -1.05 0.11801299999999859 15.082605000000001 59.581582000000004 0 0 0
466 0 9 -0.975 2.1119568820032315 13.088495353081598 59.5603124469101 0 0 0
1204 0 2 -0.123 11.735193047907845 24.664861035268274 56.02633496517001 0 0 0
600 0 8 -1.05 4.284343000000001 15.156274999999997 59.655252 0 0 0
607 0 9 -0.975 6.551611410768607 12.888730209756448 59.858095876985494 0 0 0
597 2 7 1.575 2.2011779999999996 15.119439999999997 59.618416999999994 0 0 0
620 2 7 1.575 7.5011779999999995 16.17944 60.678416999999996 0 0 0
610 0 3 -0.804 2.4326260529047197 15.48527652914952 57.71572252519526 0 0 0
594 0 10 0.425 6.581679189793001 17.099130870529226 58.56548505229745 0 0 0
605 0 10 0.425 5.980544432383724 13.45978905499804 59.19660935852629 0 0 0
611 2 7 1.575 8.561177999999998 12.99944 59.618416999999994 0 0 0
595 0 8 -1.05 8.598012999999998 15.082605000000001 59.581582000000004 0 0 0
614 0 9 -0.975 10.591949732564004 13.088566652534837 59.56057117811077 0 0 0
467 0 10 0.425 2.3416641014390582 12.859178149625867 58.56550719065613 0 0 0
745 2 7 1.575 10.681178 15.119439999999997 59.618416999999994 0 0 0
758 0 3 -0.804 10.911528669240113 15.481128905248449 57.71569790454301 0 0 0
905 0 8 -1.05 0.04434199999999855 19.396275 59.655252 0 0 0
907 2 7 1.575 0.08117799999999864 21.47944 59.618416999999994 0 0 0
891 0 8 -1.05 0.11801299999999859 23.562605 59.581582000000004 0 0 0
910 0 9 -0.975 2.112060916918535 21.568890180389513 59.561030705075176 0 0 0
1233 2 7 1.575 11.741178000000001 20.41944 60.678416999999996 0 0 0
911 0 10 0.425 2.3414428200755615 21.339798853903968 58.566084436727344 0 0 0
599 0 9 -0.975 2.311761610347783 17.12872111263546 59.85793260195439 0 0 0
601 2 7 1.575 4.321178000000001 17.23944 59.618416999999994 0 0 0
593 0 9 -0.975 6.352074664645021 17.328597566982115 59.56025752651086 0 0 0
616 0 8 -1.05 4.358013000000001 19.322605 59.581582000000004 0 0 0
596 0 3 -0.804 3.951461419007001 17.005271659981602 57.715570243654035 0 0 0
598 0 10 0.425 1.7408600335614532 17.699813478106716 59.1964740188153 0 0 0
1044 0 8 -1.05 4.284343000000001 23.636274999999998 59.655252 0 0 0
1051 0 9 -0.975 6.551648685333047 21.36883587342107 59.858169697268934 0 0 0
1041 2 7 1.575 2.2011779999999996 23.599439999999998 59.618416999999994 0 0 0
1050 2 7 1.575 6.441177999999999 19.35944 59.618416999999994 0 0 0
1064 2 7 1.575 7.5011779999999995 24.65944 60.678416999999996 0 0 0
1085 2 7 1.575 3.261178 20.41944 60.678416999999996 0 0 0
1054 0 3 -0.804 2.4383182488584256 23.96410714136878 57.71503659890984 0 0 0
1189 2 7 1.575 10.681178 23.599439999999998 59.618416999999994 0 0 0
1046 0 3 -0.804 6.672670774403796 19.728226424152265 57.71582211777559 0 0 0
1049 0 10 0.425 5.98053005213201 21.93991438105508 59.19684525141943 0 0 0
1053 0 8 -1.05 8.524341999999999 19.396275 59.655252 0 0 0
1055 2 7 1.575 8.561177999999998 21.47944 59.618416999999994 0 0 0
1039 0 8 -1.05 8.598012999999998 23.562605 59.581582000000004 0 0 0
1058 0 9 -0.975 10.59195857785318 21.568412599642663 59.560255494639435 0 0 0
1052 0 3 -0.804 8.191496591864718 21.248141048996125 57.715939797787385 0 0 0
1059 0 10 0.425 10.821204960280799 21.33891723288425 58.56538502938833 0 0 0
747 0 9 -0.975 10.791449044105075 17.128592475260298 59.85787556003486 0 0 0
1202 0 3 -0.804 10.914095079005532 23.966477356861343 57.71563299835605 0 0 0
1205 0 1 0.731 11.694294288226882 24.705720580775974 57.123666742031624 0 0 0
744 0 3 -0.804 12.428196769255448 17.00335056940352 57.715512831749066 0 0 0
608 0 3 -0.804 8.189792405100679 12.765712339900498 57.71569521499979 0 0 0
473 0 8 -1.05 0.04434199999999855 15.156274999999997 63.89525199999999 0 0 0
486 0 8 -1.05 0.04434199999999855 12.962605 61.701581999999995 0 0 0
489 1 7 1.575 1.1411779999999991 14.05944 62.798417 0 0 0
644 0 8 -1.05 4.358013000000001 13.036275 61.775251999999995 0 0 0
640 0 8 -1.05 2.2380129999999996 12.962605 63.89525199999999 0 0 0
629 0 8 -1.05 4.358013000000001 15.082605000000001 63.82158199999999 0 0 0
617 0 8 -1.05 6.404343 15.082605000000001 61.775251999999995 0 0 0
626 0 8 -1.05 2.2380129999999996 15.156274999999997 61.701581999999995 0 0 0
631 0 8 -1.05 6.404343 13.036275 63.82158199999999 0 0 0
618 2 6 1.05 6.441177999999999 15.119439999999997 63.858416999999996 0 0 0
632 2 7 1.575 6.441177999999999 12.99944 61.73841699999999 0 0 0
628 2 7 1.575 4.321178000000001 15.119439999999997 61.73841699999999 0 0 0
643 2 6 1.05 4.321178000000001 12.99944 63.858416999999996 0 0 0
621 0 8 -1.05 8.524341999999999 15.156274999999997 63.89525199999999 0 0 0
634 0 8 -1.05 8.524341999999999 12.962605 61.701581999999995 0 0 0
637 1 7 1.575 9.621178 14.05944 62.798417 0 0 0
788 0 8 -1.05 10.718013 12.962605 63.89525199999999 0 0 0
774 0 8 -1.05 10.718013 15.156274999999997 61.701581999999995 0 0 0
476 0 8 -1.05 2.1643429999999997 17.276275 63.82158199999999 0 0 0
490 0 8 -1.05 2.1643429999999997 19.322605 61.775251999999995 0 0 0
488 0 8 -1.05 0.11801299999999859 19.322605 63.82158199999999 0 0 0
475 0 8 -1.05 0.11801299999999859 17.276275 61.775251999999995 0 0 0
474 2 6 1.05 0.08117799999999864 17.23944 63.858416999999996 0 0 0