LAMMPS data file via write_data, version 17 Feb 2022, timestep = 33

1332 atoms
10 atom types
180 bonds
6 bond types
324 angles
6 angle types
0 dihedrals
2 dihedral types
36 impropers
2 improper types

0 25.44 xlo xhi
0 25.44 ylo yhi
35.929417 100.267417 zlo zhi

Masses

1 12.011
2 1.008
3 15.9994
4 15.9994
5 1.008
6 55.845
7 55.845
8 15.9994
9 15.9994
10 1.008

Pair Coeffs # lj/cut/coul/long

1 0.0988 3.31521
2 0.0161 2.4473
3 0.1463 3.04812
4 0.093 3.24287
5 0.0047 0.537925
6 9.0298e-07 4.9062
7 9.0298e-07 4.9062
8 0.1554 3.16554
9 0.1554 3.16554
10 0 0

Bond Coeffs # harmonic

1 361.8 1.105
2 652.57 1.218
3 383.13 1.351
4 563.51 0.973
5 554.135 1
6 0 2.08

Angle Coeffs # harmonic

1 51.617 106.55
2 65.93 123.65
3 65.262 109.49
4 115.745 122.1
5 118.817 130.25
6 30 109.47

Dihedral Coeffs # fourier

1 1 2.3 2 180
2 2 2.3 2 180 1.9 1 0

Improper Coeffs # cvff

1 10.5 -1 2
2 10.5 -1 2

Atoms # full

169 0 1 0.731 3.2503182946471263 7.710260546264311 56.908612064253056 0 0 0
168 0 2 -0.123 3.255749419818948 7.705266182241608 55.81098127342961 0 0 0
160 0 1 0.731 7.49517357824308 3.464304967165648 56.908868279147114 0 0 0
159 0 2 -0.123 7.503559988022048 3.45495039689597 55.81112966250347 0 0 0
317 0 1 0.731 11.733266929639742 7.706026683528443 56.9089253834005 0 0 0
316 0 2 -0.123 11.74057068561126 7.697526825928433 55.81109665723364 0 0 0
308 0 1 0.731 15.973726189020224 3.4678685024870513 56.90891320058308 0 0 0
307 0 2 -0.123 15.98172677141443 3.4608152906680583 55.81109310467371 0 0 0
21 0 1 0.731 20.215085235792976 7.705573808333744 56.908909573682884 -1 0 0
20 0 2 -0.123 20.223514325116646 7.697588375769935 55.81112263671824 -1 0 0
12 0 1 0.731 24.453537682491053 3.467951004281392 56.908913054570235 -1 0 0
11 0 2 -0.123 24.461031473201807 3.4606572618465727 55.811066618503695 -1 0 0
604 0 1 0.731 7.491357187731268 11.947575638034127 56.90891302314364 0 0 0
603 0 2 -0.123 7.496995438180792 11.940715916059972 55.81107901588942 0 0 0
613 0 1 0.731 3.253037227262049 16.18626193343617 56.9089442164682 0 0 0
612 0 2 -0.123 3.2600303870990497 16.178411015221894 55.8111504920448 0 0 0
761 0 1 0.731 11.73010791353547 16.188165157030298 56.908664271296686 0 0 0
760 0 2 -0.123 11.735203551153832 16.181107385470263 55.8110479108271 0 0 0
752 0 1 0.731 15.97058577296319 11.94909327192026 56.908733066203574 0 0 0
751 0 2 -0.123 15.975801073496587 11.943544427064237 55.81097434769043 0 0 0
456 0 1 0.731 24.452537393116714 11.946865926102891 56.90893807065596 -1 0 0
455 0 2 -0.123 24.458949912571256 11.939277767218917 55.81111585274172 -1 0 0
465 0 1 0.731 20.21579487081291 16.185877253217694 56.90892595210184 -1 0 0
464 0 2 -0.123 20.225092902423587 16.176818719698314 55.8111342559381 -1 0 0
1057 0 1 0.731 3.2541631709903327 24.666753635367748 56.909065423512516 0 0 0
1056 0 2 -0.123 3.263348508369877 24.658272543253013 55.81125613148675 0 0 0
1048 0 1 0.731 7.490455033797482 20.42977583938087 56.90883280767069 0 0 0
1047 0 2 -0.123 7.495677705409289 20.42469995207376 55.81099201274827 0 0 0
1204 0 2 -0.123 11.741276942501598 24.659314559600308 55.81097270188271 0 0 0
1205 0 1 0.731 11.73402421621471 24.666936724513366 56.90878902554499 0 0 0
1196 0 1 0.731 15.975614442086467 20.42603238219049 56.90878785298498 0 0 0
1195 0 2 -0.123 15.985177971141633 20.417312693190006 55.81100131778902 0 0 0
909 0 1 0.731 20.213001650024854 24.6698515679713 56.90877093606306 -1 0 0
908 0 2 -0.123 20.22002637384943 24.6645428451372 55.81094448910427 -1 0 0
900 0 1 0.731 24.4560676040232 20.42643167741457 56.908925432364136 -1 0 0
899 0 2 -0.123 24.46560381656826 20.418387559790784 55.811129958485076 -1 0 0
17 0 8 -1.05 25.37853918960026 2.5419473625999984 59.80012733121095 -1 0 0
19 2 7 1.575 0.08554082380912302 4.496558458239924 59.37120187633306 0 0 0
3 0 8 -1.05 0.27083247329886045 6.449635621283983 59.70502884999718 0 0 0
22 0 9 -0.975 2.2066575687885583 4.513923559698594 59.3278559654434 0 0 0
23 0 10 0.425 2.4657637712763947 4.254407975248023 58.35783250808054 0 0 0
156 0 8 -1.05 4.178166895328031 6.782243027281903 59.7996602368576 0 0 0
163 0 9 -0.975 6.523141385178266 4.437873354338129 59.77174789416307 0 0 0
153 2 7 1.575 2.2237097791622524 6.6353043916479715 59.37053962186137 0 0 0
162 2 7 1.575 6.464639958270971 2.3944769378409174 59.3717777992992 0 0 0
176 2 7 1.575 7.543945527029415 7.656482053986231 60.59777094913779 0 0 0
197 2 7 1.575 3.3038782534327766 3.4166609191128257 60.59785318495158 0 0 0
166 0 3 -0.804 2.4917359899494906 6.9592437612047915 57.503188096540754 0 0 0
158 0 3 -0.804 6.735002739203224 2.715363223161502 57.5041371129876 0 0 0
161 0 10 0.425 5.912606577448189 5.047902839123165 59.20109402007658 0 0 0
1043 0 9 -0.975 2.282517468295935 0.19793103102761053 59.77230305448465 0 1 0
1045 2 7 1.575 4.325822204109705 0.25635794894715735 59.37139517528429 0 1 0
1037 0 9 -0.975 6.446999797990696 0.2736294507831624 59.32862431185672 0 1 0
1060 0 8 -1.05 4.51123373871084 2.209568774458391 59.70494772847183 0 1 0
1042 0 10 0.425 1.6722144000903565 0.8084286544405469 59.201880447773384 0 1 0
164 0 3 -0.804 8.244577381132489 4.225052534300069 57.5028310576845 0 0 0
1038 0 10 0.425 6.706399474772153 0.01448749956867207 58.35856749091296 0 1 0
1040 0 3 -0.804 4.0034849481235835 25.42718162029772 57.50394291054905 0 0 0
29 0 8 -1.05 0.04211539004681186 6.6784874496117785 63.97326788607757 0 0 0
42 0 8 -1.05 0.0022297327825091507 4.4515466984736145 61.727806246103384 0 0 0
43 2 7 1.575 0.07715084308097314 2.4034395924584877 61.7435096349492 0 0 0
45 1 7 1.575 1.1234697264117384 5.597088051869871 62.80703161385324 0 0 0
920 0 8 -1.05 2.1632729409675555 0.31749584508505985 63.75335939725011 0 1 0
934 0 8 -1.05 2.1260124219413075 2.336747387509494 61.72290879086343 0 1 0
932 0 8 -1.05 0.09841580300701779 2.382339364675518 63.74184116661794 0 1 0
919 0 8 -1.05 0.14390147539315698 0.3546611119706276 61.72306959251646 0 1 0
918 2 6 1.05 0.05925795060330186 0.2890158026182707 63.85377116692598 0 1 0
200 0 8 -1.05 4.383969111884918 4.594625604292216 61.72259261931139 0 0 0
196 0 8 -1.05 2.2081179183546484 4.5124960813794255 63.97194408905177 0 0 0
189 0 8 -1.05 6.509276422802168 2.478187089308098 61.72738753569035 0 0 0
185 0 8 -1.05 4.338245992041912 6.622247692740941 63.74153730024055 0 0 0
198 0 8 -1.05 4.282297810538312 2.4383777331710723 63.97307939007882 0 0 0
173 0 8 -1.05 6.365848606897768 6.576723989502717 61.72264283047962 0 0 0
182 0 8 -1.05 2.2689808566778376 6.718438070502785 61.727938971270326 0 0 0
187 0 8 -1.05 6.40310024851027 4.557329955495014 63.753038158100374 0 0 0
174 2 6 1.05 6.431543726036417 6.6613501341465176 63.85351981040654 0 0 0
195 2 6 1.05 2.1917060267350696 2.4214300412941907 63.85372760155522 0 0 0
188 2 7 1.575 6.422877650153211 4.537891537435498 61.76802244934201 0 0 0
184 2 7 1.575 4.31703455013206 6.643438465314979 61.743112793054635 0 0 0
199 2 6 1.05 4.299188285491058 4.5289514732153595 63.853526693979504 0 0 0
1071 0 8 -1.05 4.242381568198638 0.21147088861015872 61.72766158161085 0 1 0
1063 0 8 -1.05 6.448191245918298 0.2725187161048493 63.971960035807804 0 1 0
1069 2 7 1.575 2.182770482065553 0.2978222515148688 61.76842728190486 0 1 0
1074 1 7 1.575 5.363698532458 1.3570674101504447 62.80681656429308 0 1 0
165 0 8 -1.05 8.41945095045435 2.5417639715177187 59.80044888314707 0 0 0
167 2 7 1.575 8.566191207849505 4.496063266009493 59.370157633427105 0 0 0
151 0 8 -1.05 8.751016304732321 6.449229886896581 59.70458442726606 0 0 0
170 0 9 -0.975 10.687296081720296 4.513809157075169 59.328180859647546 0 0 0
171 0 10 0.425 10.947078511086987 4.25492342380011 58.35814771762085 0 0 0
301 2 7 1.575 10.704364688144823 6.634755669920145 59.37185274536809 0 0 0
345 2 7 1.575 11.784258163160816 3.41636226129599 60.59813142482112 0 0 0
314 0 3 -0.804 10.973586725477778 6.956442473801419 57.5042120029694 0 0 0
1191 0 9 -0.975 10.762762952750808 0.1980097735549847 59.77208409138878 0 1 0
1190 0 10 0.425 10.152356621932254 0.8084729961734091 59.20172555695387 0 1 0
1188 0 3 -0.804 12.483791378490299 25.42642257349083 57.503270907649615 0 0 0
177 0 8 -1.05 8.52215798470763 6.678385917217163 63.97304846982578 0 0 0
190 0 8 -1.05 8.48228801081288 4.451434647252034 61.72817711812028 0 0 0
191 2 7 1.575 8.557517341355773 2.40343739171718 61.7437497349849 0 0 0
193 1 7 1.575 9.603735502624492 5.597150294077951 62.80688581327549 0 0 0
1068 0 8 -1.05 10.643368229881519 0.31735191737859525 63.75330118866842 0 1 0
1082 0 8 -1.05 10.606307085706295 2.3366313100302953 61.72320846495137 0 1 0
1080 0 8 -1.05 8.57838579332577 2.3822091265057628 63.741971040577795 0 1 0
1067 0 8 -1.05 8.624102611838948 0.35456289417625947 61.723172906179904 0 1 0
1066 2 6 1.05 8.539354917174464 0.28890358439635605 63.853866358367014 0 1 0
344 0 8 -1.05 10.688163577529266 4.512534788492701 63.97199955187694 0 0 0
330 0 8 -1.05 10.749046924585501 6.718276787396398 61.72715894565563 0 0 0
343 2 6 1.05 10.671730227692638 2.4213617523633157 63.85389060432257 0 0 0
1217 2 7 1.575 10.662933988989575 0.2977952645236177 61.76831196538807 0 1 0
304 0 8 -1.05 12.659168235990341 6.782167013905385 59.80015258573405 0 0 0
311 0 9 -0.975 15.002267972476947 4.437925722099658 59.77220075492607 0 0 0
310 2 7 1.575 14.9442228529553 2.3948532869726042 59.370156352417055 0 0 0
324 2 7 1.575 16.023861743748554 7.656723864628542 60.59793130557916 0 0 0
306 0 3 -0.804 15.21378409469053 2.7176752733271714 57.50284115151161 0 0 0
309 0 10 0.425 14.392043085206403 5.04853344572259 59.20180438984705 0 0 0
1193 2 7 1.575 12.805909787829565 0.25619890022893244 59.37081808214384 0 1 0
1185 0 9 -0.975 14.926984587274506 0.2735751879141031 59.32771047697745 0 1 0
1208 0 8 -1.05 12.99125814154298 2.209345262689058 59.7046097001467 0 1 0
1186 0 10 0.425 15.186246984002807 0.013969676497759305 58.35773744204598 0 1 0
312 0 3 -0.804 16.723244339199983 4.227431353699271 57.50413208820195 0 0 0
348 0 8 -1.05 12.863826128707842 4.594699800717604 61.72301728789512 0 0 0
337 0 8 -1.05 14.989090665436152 2.478497938073535 61.72816174333186 0 0 0
333 0 8 -1.05 12.818189145083437 6.6222825951736715 63.741775067765175 0 0 0
346 0 8 -1.05 12.762286279024941 2.4384133498482603 63.973228281629865 0 0 0
321 0 8 -1.05 14.84606853368442 6.576751299049596 61.72299341276142 0 0 0
335 0 8 -1.05 14.88324469494197 4.557567473232246 63.75329066620232 0 0 0
322 2 6 1.05 14.911545807726727 6.661507941928504 63.853770549942645 0 0 0
336 2 7 1.575 14.90263859538057 4.5378415777701475 61.76834400084888 0 0 0
332 2 7 1.575 12.797306324668607 6.643546293123547 61.74350349132108 0 0 0
347 2 6 1.05 12.779227505857735 4.528972302628221 63.85380191618764 0 0 0
1219 0 8 -1.05 12.72244858381026 0.2113591507703023 61.727705892459035 0 1 0
1211 0 8 -1.05 14.928152843990995 0.27242093770306236 63.9719724741378 0 1 0
1222 1 7 1.575 13.843552122209886 1.3569601024274505 62.80698388081537 0 1 0
890 0 10 0.425 23.665419506262403 0.014250637520974115 58.358235110215624 -1 1 0
8 0 8 -1.05 21.13884930525742 6.781719210455241 59.80053082336319 -1 0 0
15 0 9 -0.975 23.482376402067903 4.438245342539388 59.772352784905294 -1 0 0
5 2 7 1.575 19.184373815034938 6.634715642377936 59.3708046003089 -1 0 0
14 2 7 1.575 23.42403413443311 2.3951111897118276 59.370637708272135 -1 0 0
28 2 7 1.575 24.50390684331223 7.656670312931117 60.59847123770945 -1 0 0
49 2 7 1.575 20.263966543343884 3.41685333908011 60.59842067997991 -1 0 0
18 0 3 -0.804 19.455045958468244 6.956153789339247 57.503326807076014 -1 0 0
10 0 3 -0.804 23.693686000175006 2.7180362114890686 57.50331907481892 -1 0 0
13 0 10 0.425 22.872020042819162 5.0488308902020345 59.202068878925225 -1 0 0
895 0 9 -0.975 19.24198294659201 0.19789179947054797 59.772254483650656 -1 1 0
897 2 7 1.575 21.28552925096288 0.25661804035026675 59.3722580617205 -1 1 0
889 0 9 -0.975 23.406587072991275 0.2738493456492802 59.328311638620974 -1 1 0
912 0 8 -1.05 21.471048525200562 2.209871655144978 59.705128335802684 -1 1 0
894 0 10 0.425 18.631931143696146 0.8087455150477401 59.20194206924865 -1 1 0
313 0 8 -1.05 16.89849054752607 2.5416537973568736 59.80008589264818 0 0 0
315 2 7 1.575 17.04566272256454 4.496475523786366 59.37169390340488 0 0 0
299 0 8 -1.05 17.231143211275207 6.449755600653382 59.70476547260927 0 0 0
318 0 9 -0.975 19.16666112804434 4.51372077871793 59.32839880350155 0 0 0
319 0 10 0.425 19.425814288578714 4.254151658271111 58.358380859646786 0 0 0
16 0 3 -0.804 25.203458392074946 4.227451269823418 57.5036328536699 -1 0 0
892 0 3 -0.804 20.963039608627213 25.428433449699295 57.50454281729487 -1 0 0
52 0 8 -1.05 21.343799878975876 4.594742162526475 61.72337493455755 -1 0 0
48 0 8 -1.05 19.168004229693278 4.512583392597014 63.9719271828226 -1 0 0
41 0 8 -1.05 23.469099213417326 2.4784799669334885 61.72806066964448 -1 0 0
37 0 8 -1.05 21.29821661926225 6.62244794986822 63.74208304209955 -1 0 0
50 0 8 -1.05 21.242160522659525 2.438419352979116 63.97307537266516 -1 0 0
25 0 8 -1.05 23.32591597299557 6.576821053628756 61.723345687015076 -1 0 0
34 0 8 -1.05 19.229010086780274 6.718501615091172 61.72796548932895 -1 0 0
39 0 8 -1.05 23.363165129850685 4.557565213917571 63.753494940587764 -1 0 0
26 2 6 1.05 23.391545935259128 6.661519336901011 63.853986452059495 -1 0 0
47 2 6 1.05 19.151618069218053 2.4215015783195573 63.853713440942165 -1 0 0
40 2 7 1.575 23.38267146208791 4.537931541372074 61.76853584066592 -1 0 0
36 2 7 1.575 21.277115497498492 6.643514322625521 61.74385063448803 -1 0 0
51 2 6 1.05 21.259187042693473 4.5290711060741105 63.85394840342907 -1 0 0
923 0 8 -1.05 21.20237574718019 0.2115424550279169 61.72691863760033 -1 1 0
915 0 8 -1.05 23.40807739987396 0.27253313962977804 63.97180538739782 -1 1 0
921 2 7 1.575 19.142520104333936 0.2977132281217154 61.768346420519194 -1 1 0
926 1 7 1.575 22.32338451807664 1.3569608637853334 62.80674633825792 -1 1 0
325 0 8 -1.05 17.002089788807172 6.678511020065063 63.97312504146047 0 0 0
338 0 8 -1.05 16.96232397540103 4.451569654137131 61.72730181415319 0 0 0
339 2 7 1.575 17.037059823057547 2.4033174525601724 61.743470651971364 0 0 0
341 1 7 1.575 18.08337988895308 5.5970778281730995 62.806871517154086 0 0 0
1216 0 8 -1.05 19.123301624305526 0.3175910535513372 63.75325128445371 0 1 0
1230 0 8 -1.05 19.085893401861355 2.3366535938332302 61.722945017687685 0 1 0
1228 0 8 -1.05 17.058338772398486 2.3824057010080795 63.741775319339375 0 1 0
1215 0 8 -1.05 17.10369284852299 0.3545809795985132 61.72310489872796 0 1 0
1214 2 6 1.05 17.019253614343295 0.28898906618320064 63.85377755851013 0 1 0
150 0 10 0.425 6.7059260498237006 8.495161749991146 58.3580467976579 0 0 0
461 0 8 -1.05 25.378939052497763 11.022248376092211 59.80030893066872 -1 0 0
155 0 9 -0.975 2.2819026603662715 8.678437029146194 59.772574719567 0 0 0
157 2 7 1.575 4.325161390886622 8.736876751953776 59.37097514124488 0 0 0
149 0 9 -0.975 6.446536263852569 8.75402516617475 59.32817347284738 0 0 0
172 0 8 -1.05 4.510729667757006 10.689819610862076 59.705214416925315 0 0 0
152 0 3 -0.804 4.001299683001029 8.468937197246216 57.50364228228152 0 0 0
154 0 10 0.425 1.6714295939356665 9.289013826765936 59.20240165638903 0 0 0
606 2 7 1.575 6.463913677696574 10.875116069924108 59.37193033520452 0 0 0
641 2 7 1.575 3.3036439739605883 11.896808455320858 60.598462068990116 0 0 0
602 0 3 -0.804 6.732531931436015 11.197290720321714 57.50429133474611 0 0 0
32 0 8 -1.05 2.163031429161118 8.797471448792438 63.7535105690675 0 0 0
46 0 8 -1.05 2.1258289900319043 10.816858564010108 61.72339400705873 0 0 0
44 0 8 -1.05 0.09805625646133906 10.86234271535201 63.74203140278192 0 0 0
31 0 8 -1.05 0.14364971552233446 8.834818027544946 61.723299231759405 0 0 0
30 2 6 1.05 0.05904426118593335 8.769064509458692 63.85396382739845 0 0 0
487 2 7 1.575 0.07713870964695649 10.883636597335641 61.74371068163944 0 0 0
183 0 8 -1.05 4.242075312597125 8.691545685929762 61.727703073901026 0 0 0
175 0 8 -1.05 6.447962804631967 8.752478998579925 63.97181048267466 0 0 0
181 2 7 1.575 2.1825419753085757 8.77793425705533 61.76861697088232 0 0 0
186 1 7 1.575 5.363438632666597 9.837110994345153 62.80676112586397 0 0 0
633 0 8 -1.05 6.508969625579273 10.958305646740454 61.7273124173753 0 0 0
642 0 8 -1.05 4.282094127956461 10.918384331144264 63.97315673588842 0 0 0
639 2 6 1.05 2.191452400884681 10.901438060669841 63.85399454369809 0 0 0
463 2 7 1.575 0.08565996728060096 12.976482402257432 59.37007225385604 0 0 0
447 0 8 -1.05 0.2709732666137952 14.929436695025371 59.70479760390497 0 0 0
466 0 9 -0.975 2.206874533917243 12.993942828963043 59.328167421348645 0 0 0
600 0 8 -1.05 4.178998072996168 15.262078981573955 59.800337002951274 0 0 0
607 0 9 -0.975 6.522478572653608 12.918519406977067 59.77235324571464 0 0 0
597 2 7 1.575 2.2242412510927894 15.11483282649546 59.37176373076001 0 0 0
620 2 7 1.575 7.5436119190199475 16.136742347197597 60.59817534974818 0 0 0
610 0 3 -0.804 2.493617953497698 15.436593659129256 57.50414745058423 0 0 0
605 0 10 0.425 5.911719091001648 13.528690464988719 59.20208879175551 0 0 0
467 0 10 0.425 2.466761993500856 12.73489246218809 58.358212416604616 0 0 0
608 0 3 -0.804 8.241990972997378 12.707072646184713 57.50271998502406 0 0 0
473 0 8 -1.05 0.042051502403171535 15.158468489525308 63.9733768754962 0 0 0
486 0 8 -1.05 0.002003986551743255 12.931600390379673 61.728446781717096 0 0 0
489 1 7 1.575 1.123523386310459 14.077245490716685 62.80713664521612 0 0 0
644 0 8 -1.05 4.383803245105561 13.074753397329758 61.7231484290194 0 0 0
640 0 8 -1.05 2.2080067604330016 12.99257452647632 63.972126317622354 0 0 0
629 0 8 -1.05 4.338135261262463 15.102251854008903 63.74203561751355 0 0 0
617 0 8 -1.05 6.365874704019433 15.05692168994192 61.723334436666086 0 0 0
626 0 8 -1.05 2.2690142201658596 15.198244333562927 61.727505721820144 0 0 0
631 0 8 -1.05 6.402962855754231 13.037362074388787 63.75341761554872 0 0 0
618 2 6 1.05 6.431559453936179 15.14136353720242 63.853948297986335 0 0 0
632 2 7 1.575 6.422742902356049 13.018053614670142 61.768485119412844 0 0 0
628 2 7 1.575 4.317197354508652 15.12354275125649 61.74373458896694 0 0 0
643 2 6 1.05 4.299070615089058 13.008948233325908 63.85388145462551 0 0 0
789 2 7 1.575 11.78375573621172 11.896624403699937 60.59805369250674 0 0 0
300 0 3 -0.804 12.483019020349602 8.466252463353468 57.502751839603675 0 0 0
609 0 8 -1.05 8.418792412367143 11.022359680778111 59.800016860217234 0 0 0
302 0 10 0.425 10.152026236600117 9.288288694584528 59.20155339058529 0 0 0
303 0 9 -0.975 10.762690532078114 8.678196729573735 59.77203030314659 0 0 0
180 0 8 -1.05 10.642961438606449 8.797301917638316 63.75317489674293 0 0 0
194 0 8 -1.05 10.605876966614261 10.816777418891597 61.723038843268846 0 0 0
192 0 8 -1.05 8.578109814531407 10.862115704383784 63.74172724776802 0 0 0
179 0 8 -1.05 8.623825569478601 8.834605151540725 61.72265997430876 0 0 0
178 2 6 1.05 8.539020018154714 8.768901063861263 63.853565306903796 0 0 0
635 2 7 1.575 8.557163753074798 10.883554396498143 61.74339708792352 0 0 0
329 2 7 1.575 10.662738540463913 8.777988498698857 61.7682163816652 0 0 0
787 2 6 1.05 10.671452072880955 10.901386167290063 63.85374084990551 0 0 0
615 0 10 0.425 10.946778256746091 12.735569287943289 58.35810704389123 0 0 0
611 2 7 1.575 8.565445255396478 12.97666897061162 59.36992738590315 0 0 0
595 0 8 -1.05 8.750626005815413 14.929574735094311 59.70499728023269 0 0 0
614 0 9 -0.975 10.68683440625171 12.994241477900069 59.32814781063709 0 0 0
745 2 7 1.575 10.703918818449761 15.115234857334775 59.37250212358256 0 0 0
758 0 3 -0.804 10.971625894984225 15.438165885358112 57.50482900514959 0 0 0
621 0 8 -1.05 8.522226561568772 15.158472342416482 63.97310562508184 0 0 0
634 0 8 -1.05 8.482049764821898 12.93151258175771 61.72835925852449 0 0 0
637 1 7 1.575 9.603693857228341 14.077357686572654 62.80669834131546 0 0 0
788 0 8 -1.05 10.688008777639743 12.99259464980759 63.97183746771955 0 0 0
774 0 8 -1.05 10.749033041377889 15.198303775614129 61.726663468741556 0 0 0
298 0 10 0.425 15.186582854575084 8.494993580136123 58.35781710598346 0 0 0
305 2 7 1.575 12.80567800593364 8.736483899663304 59.370059313494096 0 0 0
297 0 9 -0.975 14.926880313475989 8.75409488494255 59.32780922041932 0 0 0
320 0 8 -1.05 12.990757142436863 10.689509901117187 59.704670286840084 0 0 0
754 2 7 1.575 14.943896137721442 10.875216918862568 59.371301156095306 0 0 0
750 0 3 -0.804 15.212143287356948 11.198495374849738 57.50376111124527 0 0 0
331 0 8 -1.05 12.722098244826809 8.691530141679932 61.728172471584855 0 0 0
323 0 8 -1.05 14.928013638884742 8.752619635804917 63.97193194022124 0 0 0
334 1 7 1.575 13.843566558800156 9.837256190072678 62.80685579594171 0 0 0
781 0 8 -1.05 14.988907109468064 10.958490339438805 61.72731064342338 0 0 0
790 0 8 -1.05 12.762068032344473 10.91850669347196 63.973080717550665 0 0 0
748 0 8 -1.05 12.659060429817481 15.262558429947394 59.799691191817324 0 0 0
755 0 9 -0.975 15.00233991372353 12.918573974399786 59.772250274878516 0 0 0
768 2 7 1.575 16.023978497124276 16.136706146247732 60.597771898217076 0 0 0
753 0 10 0.425 14.391793816163199 13.52889980102619 59.20190558314861 0 0 0
756 0 3 -0.804 16.721756864384663 12.708161485626977 57.50306223767114 0 0 0
792 0 8 -1.05 12.863747754109061 13.074879065858251 61.72269464910408 0 0 0
777 0 8 -1.05 12.818094862173174 15.102315871857861 63.74152181734625 0 0 0
765 0 8 -1.05 14.846032718367315 15.056968665776058 61.722926962888465 0 0 0
779 0 8 -1.05 14.882995017208538 13.037502558658183 63.753188016058765 0 0 0
766 2 6 1.05 14.911526036946501 15.141524829340012 63.85373019456983 0 0 0
780 2 7 1.575 14.902656840584086 13.018116812980471 61.768304701760734 0 0 0
776 2 7 1.575 12.797362564963827 15.123755568117883 61.74316436397455 0 0 0
791 2 6 1.05 12.779026151141663 13.009042558897344 63.85357140957182 0 0 0
2 0 10 0.425 23.666369446085934 8.494900965823234 58.35853003491827 -1 0 0
757 0 8 -1.05 16.89857143445703 11.022304424615077 59.79976593375358 0 0 0
7 0 9 -0.975 19.24263811361012 8.677902095982885 59.771863464333705 -1 0 0
9 2 7 1.575 21.285932464802272 8.736286857145881 59.371128824500786 -1 0 0
1 0 9 -0.975 23.406887218021627 8.753996103368397 59.328577552087204 -1 0 0
24 0 8 -1.05 21.47084797007331 10.689552774131437 59.7048409328706 -1 0 0
4 0 3 -0.804 20.964603843074254 8.46585496490547 57.50368997383943 -1 0 0
6 0 10 0.425 18.63236415673146 9.288268702541789 59.20128926313035 -1 0 0
458 2 7 1.575 23.424152424333556 10.874960356235906 59.371851109061595 -1 0 0
493 2 7 1.575 20.263830101665537 11.896767676462138 60.59798931898418 -1 0 0
454 0 3 -0.804 23.69323906253287 11.196953454331066 57.5042661688277 -1 0 0
35 0 8 -1.05 21.202142241373714 8.691642540781801 61.72782468170529 -1 0 0
27 0 8 -1.05 23.407914495664578 8.752662802165226 63.972064809684284 -1 0 0
33 2 7 1.575 19.14260052041023 8.777962474423639 61.768142801705224 -1 0 0
38 1 7 1.575 22.323455625528613 9.837241264208146 62.80693726300438 -1 0 0
485 0 8 -1.05 23.468913860811288 10.95838671188309 61.727414411309994 -1 0 0
494 0 8 -1.05 21.24200511268811 10.918500729160867 63.97320038581172 -1 0 0
491 2 6 1.05 19.15142725193589 10.901539774707993 63.85368120052878 -1 0 0
328 0 8 -1.05 19.122972704920667 8.79762012357882 63.75316569303577 0 0 0
342 0 8 -1.05 19.085803684327658 10.816850276464832 61.7228082734716 0 0 0
340 0 8 -1.05 17.058047169208397 10.862446718041179 63.741569958995754 0 0 0
327 0 8 -1.05 17.103713020887852 8.834847918553708 61.72274312890131 0 0 0
326 2 6 1.05 17.019068476849952 8.769094456570937 63.8536222336941 0 0 0
783 2 7 1.575 17.03709432027353 10.883618366524011 61.74320531638553 0 0 0
452 0 8 -1.05 21.138723793184436 15.261423369982962 59.800278170829365 -1 0 0
459 0 9 -0.975 23.482624053254007 12.918393213968548 59.77224525063771 -1 0 0
449 2 7 1.575 19.184302124324145 15.114788503992807 59.37049934971007 -1 0 0
472 2 7 1.575 24.50401001996321 16.136486352655066 60.59824577112177 -1 0 0
462 0 3 -0.804 19.45480551576024 15.43654363581729 57.503140714066795 -1 0 0
457 0 10 0.425 22.87195667938864 13.528573202540468 59.20187621048638 -1 0 0
759 2 7 1.575 17.04545699375267 12.976679144507413 59.370341361278584 0 0 0
743 0 8 -1.05 17.23114073632379 14.929711530087383 59.70442148875919 0 0 0
762 0 9 -0.975 19.16669731412046 12.993744005980012 59.32767779889516 0 0 0
763 0 10 0.425 19.426257925040264 12.734336222398879 58.35774091190937 0 0 0
460 0 3 -0.804 25.20276913525642 12.706635890875521 57.50280242325839 -1 0 0
496 0 8 -1.05 21.343773888165387 13.07457838818446 61.72306056521048 -1 0 0
492 0 8 -1.05 19.167918634418147 12.992624672282078 63.97202108077337 -1 0 0
481 0 8 -1.05 21.298152836649923 15.102417353411639 63.74187093074179 -1 0 0
469 0 8 -1.05 23.32583938002935 15.056844038281966 61.723197885622284 -1 0 0
478 0 8 -1.05 19.229049550136 15.198408050852006 61.727859119030065 -1 0 0
483 0 8 -1.05 23.36288677926641 13.037438339858506 63.75341092685032 -1 0 0
470 2 6 1.05 23.391498588595976 15.141412985735126 63.853955482598344 -1 0 0
484 2 7 1.575 23.38271258714241 13.018034684918037 61.76842713038452 -1 0 0
480 2 7 1.575 21.277091510656085 15.123322812161268 61.743625671462645 -1 0 0
495 2 6 1.05 21.25900503319866 13.00904470529007 63.85384869424339 -1 0 0
769 0 8 -1.05 17.002114704792028 15.158486752534643 63.973233730599254 0 0 0
782 0 8 -1.05 16.962087529290837 12.931657122204332 61.72779374718302 0 0 0
785 1 7 1.575 18.08340768574093 14.077160786265521 62.80693332590508 0 0 0
594 0 10 0.425 6.706459915304741 16.97447297352354 58.35784130908976 0 0 0
905 0 8 -1.05 25.378562511688063 19.501133041529986 59.80037839922114 -1 0 0
907 2 7 1.575 0.08595543296877886 21.45607331525644 59.372274824070516 0 0 0
891 0 8 -1.05 0.2711499201464772 23.409471922271045 59.70499971079092 0 0 0
910 0 9 -0.975 2.2068057024322725 21.473482785214276 59.32856874960387 0 0 0
911 0 10 0.425 2.4656805533221275 21.21372884145803 58.358536275735005 0 0 0
599 0 9 -0.975 2.2826384266193296 17.1581646694421 59.77225065632179 0 0 0
601 2 7 1.575 4.325657310930853 17.216363778037042 59.37023790298641 0 0 0
593 0 9 -0.975 6.446824038728997 17.233881064578636 59.327766635454594 0 0 0
616 0 8 -1.05 4.510935623549715 19.169312699824886 59.704859406048556 0 0 0
596 0 3 -0.804 4.003146445481672 16.94629565790031 57.50294769040438 0 0 0
598 0 10 0.425 1.6719627524807998 17.768348320752487 59.20188569363157 0 0 0
1044 0 8 -1.05 4.178704387375777 23.74165620618045 59.80022286126393 0 0 0
1051 0 9 -0.975 6.52226000107324 21.398280523216656 59.7725509929554 0 0 0
1041 2 7 1.575 2.224214103388351 23.594776549694163 59.37068886779358 0 0 0
1050 2 7 1.575 6.463933293426262 19.355112860361277 59.37088017973976 0 0 0
1064 2 7 1.575 7.544215226037878 24.61644541842749 60.598436522005386 0 0 0
1085 2 7 1.575 3.304098120550687 20.376405610413084 60.59845391366441 0 0 0
1054 0 3 -0.804 2.493918276688656 23.917566514217594 57.50329391478871 0 0 0
1046 0 3 -0.804 6.73191621998818 19.67895133156369 57.503427836830596 0 0 0
1049 0 10 0.425 5.9117488836749015 22.008770130592808 59.20234056262126 0 0 0
1052 0 3 -0.804 8.241641588958089 21.188431164716675 57.503451811616856 0 0 0
476 0 8 -1.05 2.163014145259921 17.27733476695506 63.75347009106638 0 0 0
490 0 8 -1.05 2.12585468024234 19.296693815639077 61.723240226576344 0 0 0
488 0 8 -1.05 0.09829465409650083 19.342359981458426 63.74197531220995 0 0 0
475 0 8 -1.05 0.1438855996759806 17.3143811756559 61.72324978670916 0 0 0
474 2 6 1.05 0.05906201415835377 17.248995350558033 63.853976887661354 0 0 0
917 0 8 -1.05 0.042228474564441815 23.638385968086553 63.97304573519448 0 0 0
930 0 8 -1.05 0.0023595382197216905 21.41141558262075 61.727142065139155 0 0 0
931 2 7 1.575 0.07700652579826875 19.3631128428068 61.743722002692394 0 0 0
933 1 7 1.575 1.123453449270503 22.556843323986076 62.80684128706756 0 0 0
627 0 8 -1.05 4.2420549193376385 17.171489744677416 61.72838202874252 0 0 0
619 0 8 -1.05 6.448116128885605 17.232499318468268 63.97209718086142 0 0 0
625 2 7 1.575 2.1827520673506187 17.257897388560036 61.76847513810677 0 0 0
630 1 7 1.575 5.363581297694385 18.31712034258089 62.80710886801987 0 0 0
1088 0 8 -1.05 4.383906723397259 21.554497649322936 61.723287747903655 0 0 0
1084 0 8 -1.05 2.2080430211336854 21.472467367443574 63.972045282220996 0 0 0
1077 0 8 -1.05 6.509116557463557 19.43827597401902 61.727778204688725 0 0 0
1073 0 8 -1.05 4.33840221140037 23.582288769284173 63.74193384179552 0 0 0
1086 0 8 -1.05 4.282170934504908 19.398437788405005 63.97333474359709 0 0 0
1061 0 8 -1.05 6.366039176609291 23.53667344632722 61.723219730815394 0 0 0
1070 0 8 -1.05 2.2691700767183547 23.67833010924651 61.72809071117985 0 0 0
1075 0 8 -1.05 6.403213565046812 21.5173491424562 63.753490706968904 0 0 0
1062 2 6 1.05 6.431693296620882 23.621372760378954 63.85390947546325 0 0 0
1083 2 6 1.05 2.191601339795145 19.381354662856417 63.85395522973267 0 0 0
1076 2 7 1.575 6.422751631731562 21.497821716924033 61.768605226795614 0 0 0
1072 2 7 1.575 4.317212012644072 23.603293961184463 61.743622004485935 0 0 0
1087 2 6 1.05 4.299198446889774 21.489001671338215 63.853983222161 0 0 0
746 0 10 0.425 10.151892921612808 17.76881067978737 59.20191931978728 0 0 0
1233 2 7 1.575 11.784240826016187 20.37637771822844 60.597745733644686 0 0 0
1189 2 7 1.575 10.704340100180817 23.594788523220696 59.37087145883114 0 0 0
1053 0 8 -1.05 8.418511730120722 19.502036680844498 59.79976648308049 0 0 0
1055 2 7 1.575 8.56550181921419 21.4565720528885 59.370802972026446 0 0 0
1039 0 8 -1.05 8.75126972369251 23.409537222588742 59.704899935056254 0 0 0
1058 0 9 -0.975 10.686847341239158 21.47360412038352 59.32780213177282 0 0 0
1059 0 10 0.425 10.9462123985956 21.214350904081936 58.35777957957819 0 0 0
747 0 9 -0.975 10.762774937948414 17.158823465014134 59.772283593561376 0 0 0
1202 0 3 -0.804 10.974060638904989 23.916934792421912 57.50345532881669 0 0 0
744 0 3 -0.804 12.48130404903663 16.9478071663361 57.502091162680294 0 0 0