LAMMPS data file via write_data, version 17 Feb 2022, timestep = 0

236 atoms
8 atom types
0 bonds
4 bond types
0 angles
4 angle types
0 dihedrals
2 dihedral types
0 impropers
1 improper types

0 8.48 xlo xhi
0 8.48 ylo yhi
-33.920004 25.439996 zlo zhi

Masses

1 12.011
2 1.008
3 15.9994
4 15.9994
5 1.008
6 55.845
7 55.845
8 15.9994

Pair Coeffs # lj/cut/coul/cut

1 0.0988 3.31521
2 0.0161 2.4473
3 0.1463 3.04812
4 0.093 3.24287
5 0.0047 0.537925
6 9.0298e-07 4.9062
7 9.0298e-07 4.9062
8 0.1554 3.16554

Atoms # full

1 0 6 1.05 0.258417 4.498416999999998 17.218413000000005 0 0 0
2 0 7 1.575 6.618416999999998 2.3784170000000002 17.218413000000005 0 0 0
3 0 7 1.575 2.3784170000000002 6.618416999999998 17.218413000000005 0 0 0
4 0 7 1.575 4.498416999999998 0.258417 17.218413000000005 0 0 0
5 0 8 -1.05 6.581580999999999 0.295252 17.25524800000001 0 0 0
6 0 8 -1.05 0.295252 6.581580999999999 17.25524800000001 0 0 0
7 0 8 -1.05 4.535251999999998 2.3415820000000003 17.25524800000001 0 0 0
8 0 8 -1.05 2.3415820000000003 4.535251999999998 17.25524800000001 0 0 0
9 0 8 -1.05 6.581580999999999 6.581580999999999 15.061576999999993 0 0 0
10 0 8 -1.05 2.415252 2.415252 10.895247999999995 0 0 0
11 0 8 -1.05 6.655251999999998 4.461582 17.18157800000001 0 0 0
12 0 8 -1.05 2.3415820000000003 4.535251999999998 8.775248000000012 0 0 0
13 0 8 -1.05 0.22158200000000006 6.655251999999998 12.941577999999993 1 0 0
14 0 8 -1.05 0.295252 2.3415820000000003 13.015247999999993 0 0 0
15 0 8 -1.05 4.461582 0.22158200000000006 15.135248000000011 0 1 0
16 0 8 -1.05 4.535251999999998 0.295252 10.821577999999995 0 0 0
17 0 8 -1.05 2.3415820000000003 6.581580999999999 10.821577999999995 0 0 0
18 0 8 -1.05 6.655251999999998 2.415252 15.135248000000011 0 0 0
19 0 8 -1.05 4.535251999999998 2.3415820000000003 8.775248000000012 0 0 0
20 0 8 -1.05 4.461582 6.655251999999998 17.18157800000001 0 0 0
21 0 8 -1.05 6.581580999999999 4.535251999999998 13.015247999999993 0 0 0
22 0 8 -1.05 2.415252 4.461582 12.941577999999993 0 0 0
23 0 8 -1.05 0.295252 0.295252 15.061576999999993 0 0 0
24 0 8 -1.05 0.22158200000000006 0.22158200000000006 10.895247999999995 1 1 0
25 0 8 -1.05 6.581580999999999 2.3415820000000003 10.821577999999995 0 0 0
26 0 8 -1.05 2.415252 6.655251999999998 15.135248000000011 0 0 0
27 0 8 -1.05 2.3415820000000003 0.295252 13.015247999999993 0 0 0
28 0 8 -1.05 6.655251999999998 0.22158200000000006 12.941577999999993 0 1 0
29 0 8 -1.05 4.535251999999998 4.535251999999998 15.061576999999993 0 0 0
30 0 8 -1.05 4.461582 4.461582 10.895247999999995 0 0 0
31 0 8 -1.05 0.295252 6.581580999999999 8.775248000000012 0 0 0
32 0 8 -1.05 0.22158200000000006 2.415252 17.18157800000001 1 0 0
33 0 8 -1.05 2.3415820000000003 2.3415820000000003 15.061576999999993 0 0 0
34 0 8 -1.05 6.655251999999998 6.655251999999998 10.895247999999995 0 0 0
35 0 8 -1.05 0.295252 4.535251999999998 10.821577999999995 0 0 0
36 0 8 -1.05 0.22158200000000006 4.461582 15.135248000000011 1 0 0
37 0 8 -1.05 4.535251999999998 6.581580999999999 13.015247999999993 0 0 0
38 0 8 -1.05 4.461582 2.415252 12.941577999999993 0 0 0
39 0 8 -1.05 6.581580999999999 0.295252 8.775248000000012 0 0 0
40 0 8 -1.05 2.415252 0.22158200000000006 17.18157800000001 0 1 0
41 0 6 1.05 4.498416999999998 4.498416999999998 12.978412999999996 0 0 0
42 0 7 1.575 2.3784170000000002 6.618416999999998 8.738413000000008 0 0 0
43 0 6 1.05 6.618416999999998 2.3784170000000002 8.738413000000008 0 0 0
44 0 6 1.05 0.258417 0.258417 12.978412999999996 0 0 0
45 0 7 1.575 6.618416999999998 0.258417 10.858412999999992 0 0 0
46 0 7 1.575 2.3784170000000002 0.258417 15.098413000000008 0 0 0
47 0 7 1.575 4.498416999999998 6.618416999999998 15.098413000000008 0 0 0
48 0 7 1.575 4.498416999999998 2.3784170000000002 10.858412999999992 0 0 0
49 0 7 1.575 0.258417 4.498416999999998 8.738413000000008 0 0 0
50 0 7 1.575 0.258417 2.3784170000000002 15.098413000000008 0 0 0
51 0 7 1.575 0.258417 6.618416999999998 10.858412999999992 0 0 0
52 0 7 1.575 2.3784170000000002 4.498416999999998 10.858412999999992 0 0 0
53 0 6 1.05 6.618416999999998 4.498416999999998 15.098413000000008 0 0 0
54 0 7 1.575 6.618416999999998 6.618416999999998 12.978412999999996 0 0 0
55 0 7 1.575 2.3784170000000002 2.3784170000000002 12.978412999999996 0 0 0
56 0 7 1.575 4.498416999999998 0.258417 8.738413000000008 0 0 0
57 0 7 1.575 3.4384170000000003 3.4384170000000003 16.15841300000001 0 0 0
58 0 7 1.575 5.5584169999999995 5.5584169999999995 9.798412999999996 0 0 0
59 0 6 1.05 7.678417 3.4384170000000003 11.918412999999994 0 0 0
60 0 7 1.575 1.3184170000000002 5.5584169999999995 14.038412999999998 0 0 0
61 0 7 1.575 3.4384170000000003 7.678417 11.918412999999994 0 0 0
62 0 7 1.575 5.5584169999999995 1.3184170000000002 14.038412999999998 0 0 0
63 0 6 1.05 7.678417 7.678417 16.15841300000001 0 0 0
64 0 7 1.575 1.3184170000000002 1.3184170000000002 9.798412999999996 0 0 0
65 0 8 -1.05 6.581580999999999 6.581580999999999 6.581576999999989 0 0 0
66 0 8 -1.05 2.415252 2.415252 2.415247999999991 0 0 0
67 0 8 -1.05 6.655251999999998 4.461582 8.701578000000005 0 0 0
68 0 8 -1.05 2.3415820000000003 4.535251999999998 0.29524799999999374 0 0 0
69 0 8 -1.05 0.22158200000000006 6.655251999999998 4.461577999999996 1 0 0
70 0 8 -1.05 0.295252 2.3415820000000003 4.535248000000003 0 0 0
71 0 8 -1.05 4.461582 0.22158200000000006 6.655248000000007 0 1 0
72 0 8 -1.05 4.535251999999998 0.295252 2.3415779999999913 0 0 0
73 0 8 -1.05 2.3415820000000003 6.581580999999999 2.3415779999999913 0 0 0
74 0 8 -1.05 6.655251999999998 2.415252 6.655248000000007 0 0 0
75 0 8 -1.05 4.535251999999998 2.3415820000000003 0.29524799999999374 0 0 0
76 0 8 -1.05 4.461582 6.655251999999998 8.701578000000005 0 0 0
77 0 8 -1.05 6.581580999999999 4.535251999999998 4.535248000000003 0 0 0
78 0 8 -1.05 2.415252 4.461582 4.461577999999996 0 0 0
79 0 8 -1.05 0.295252 0.295252 6.581576999999989 0 0 0
80 0 8 -1.05 0.22158200000000006 0.22158200000000006 2.415247999999991 1 1 0
81 0 8 -1.05 2.415252 0.22158200000000006 -16.738421999999996 0 1 0
82 0 8 -1.05 6.581580999999999 2.3415820000000003 2.3415779999999913 0 0 0
83 0 8 -1.05 2.415252 6.655251999999998 6.655248000000007 0 0 0
84 0 8 -1.05 2.3415820000000003 0.295252 4.535248000000003 0 0 0
85 0 8 -1.05 6.655251999999998 0.22158200000000006 4.461577999999996 0 1 0
86 0 8 -1.05 4.535251999999998 4.535251999999998 6.581576999999989 0 0 0
87 0 8 -1.05 4.461582 4.461582 2.415247999999991 0 0 0
88 0 8 -1.05 0.295252 6.581580999999999 0.29524799999999374 0 0 0
89 0 8 -1.05 0.22158200000000006 2.415252 -16.738421999999996 1 0 0
90 0 8 -1.05 0.22158200000000006 2.415252 8.701578000000005 1 0 0
91 0 8 -1.05 2.3415820000000003 2.3415820000000003 6.581576999999989 0 0 0
92 0 8 -1.05 6.655251999999998 6.655251999999998 2.415247999999991 0 0 0
93 0 8 -1.05 0.295252 4.535251999999998 2.3415779999999913 0 0 0
94 0 8 -1.05 0.22158200000000006 4.461582 6.655248000000007 1 0 0
95 0 8 -1.05 4.535251999999998 6.581580999999999 4.535248000000003 0 0 0
96 0 8 -1.05 4.461582 2.415252 4.461577999999996 0 0 0
97 0 8 -1.05 6.581580999999999 0.295252 0.29524799999999374 0 0 0
98 0 8 -1.05 2.415252 0.22158200000000006 8.701578000000005 0 1 0
99 0 7 1.575 4.498416999999998 4.498416999999998 4.498412999999999 0 0 0
100 0 7 1.575 2.3784170000000002 6.618416999999998 0.25841300000000444 0 0 0
101 0 8 -1.05 4.461582 6.655251999999998 -16.738421999999996 0 0 0
102 0 6 1.05 6.618416999999998 2.3784170000000002 0.25841300000000444 0 0 0
103 0 7 1.575 0.258417 0.258417 4.498412999999999 0 0 0
104 0 7 1.575 6.618416999999998 0.258417 2.3784129999999877 0 0 0
105 0 6 1.05 2.3784170000000002 0.258417 6.618413000000004 0 0 0
106 0 7 1.575 4.498416999999998 6.618416999999998 6.618413000000004 0 0 0
107 0 7 1.575 4.498416999999998 2.3784170000000002 2.3784129999999877 0 0 0
108 0 7 1.575 0.258417 4.498416999999998 0.25841300000000444 0 0 0
109 0 7 1.575 0.258417 2.3784170000000002 6.618413000000004 0 0 0
110 0 8 -1.05 6.655251999999998 4.461582 -16.738421999999996 0 0 0
111 0 6 1.05 0.258417 6.618416999999998 2.3784129999999877 0 0 0
112 0 6 1.05 2.3784170000000002 4.498416999999998 2.3784129999999877 0 0 0
113 0 7 1.575 1.3184170000000002 1.3184170000000002 -15.641586999999998 0 0 0
114 0 7 1.575 7.678417 7.678417 -9.281587000000002 0 0 0
115 0 7 1.575 5.5584169999999995 1.3184170000000002 -11.401586999999996 0 0 0
116 0 7 1.575 3.4384170000000003 7.678417 -13.521587000000004 0 0 0
117 0 6 1.05 1.3184170000000002 5.5584169999999995 -11.401586999999996 0 0 0
118 0 7 1.575 7.678417 3.4384170000000003 -13.521587000000004 0 0 0
119 0 7 1.575 5.5584169999999995 5.5584169999999995 -15.641586999999998 0 0 0
120 0 7 1.575 3.4384170000000003 3.4384170000000003 -9.281587000000002 0 0 0
121 0 7 1.575 4.498416999999998 0.258417 -16.701586999999996 0 0 0
122 0 6 1.05 2.3784170000000002 2.3784170000000002 -12.461586999999994 0 0 0
123 0 7 1.575 6.618416999999998 6.618416999999998 -12.461586999999994 0 0 0
124 0 6 1.05 6.618416999999998 4.498416999999998 -10.341587000000004 0 0 0
125 0 7 1.575 2.3784170000000002 4.498416999999998 -14.581587000000003 0 0 0
126 0 7 1.575 0.258417 6.618416999999998 -14.581587000000003 0 0 0
127 0 7 1.575 0.258417 2.3784170000000002 -10.341587000000004 0 0 0
128 0 7 1.575 0.258417 4.498416999999998 -16.701586999999996 0 0 0
129 0 7 1.575 4.498416999999998 2.3784170000000002 -14.581587000000003 0 0 0
130 0 7 1.575 4.498416999999998 6.618416999999998 -10.341587000000004 0 0 0
131 0 6 1.05 2.3784170000000002 0.258417 -10.341587000000004 0 0 0
132 0 6 1.05 6.618416999999998 0.258417 -14.581587000000003 0 0 0
133 0 7 1.575 0.258417 0.258417 -12.461586999999994 0 0 0
134 0 7 1.575 6.618416999999998 2.3784170000000002 -16.701586999999996 0 0 0
135 0 7 1.575 2.3784170000000002 6.618416999999998 -16.701586999999996 0 0 0
136 0 7 1.575 4.498416999999998 4.498416999999998 -12.461586999999994 0 0 0
137 0 8 -1.05 2.415252 0.22158200000000006 -8.258422000000003 0 1 0
138 0 8 -1.05 6.581580999999999 0.295252 -16.664751999999996 0 0 0
139 0 8 -1.05 4.461582 2.415252 -12.498421999999998 0 0 0
140 0 8 -1.05 4.535251999999998 6.581580999999999 -12.424751999999998 0 0 0
141 0 8 -1.05 0.22158200000000006 4.461582 -10.304752000000004 1 0 0
142 0 8 -1.05 0.295252 4.535251999999998 -14.618421999999995 0 0 0
143 0 8 -1.05 6.655251999999998 6.655251999999998 -14.544752000000003 0 0 0
144 0 8 -1.05 2.3415820000000003 2.3415820000000003 -10.378423000000005 0 0 0
145 0 8 -1.05 0.22158200000000006 2.415252 -8.258422000000003 1 0 0
146 0 8 -1.05 0.295252 6.581580999999999 -16.664751999999996 0 0 0
147 0 8 -1.05 4.461582 4.461582 -14.544752000000003 0 0 0
148 0 8 -1.05 4.535251999999998 4.535251999999998 -10.378423000000005 0 0 0
149 0 8 -1.05 6.655251999999998 0.22158200000000006 -12.498421999999998 0 1 0
150 0 8 -1.05 2.3415820000000003 0.295252 -12.424751999999998 0 0 0
151 0 8 -1.05 2.415252 6.655251999999998 -10.304752000000004 0 0 0
152 0 8 -1.05 6.581580999999999 2.3415820000000003 -14.618421999999995 0 0 0
153 0 8 -1.05 0.22158200000000006 0.22158200000000006 -14.544752000000003 1 1 0
154 0 8 -1.05 0.295252 0.295252 -10.378423000000005 0 0 0
155 0 8 -1.05 2.415252 4.461582 -12.498421999999998 0 0 0
156 0 8 -1.05 6.581580999999999 4.535251999999998 -12.424751999999998 0 0 0
157 0 8 -1.05 4.461582 6.655251999999998 -8.258422000000003 0 0 0
158 0 8 -1.05 4.535251999999998 2.3415820000000003 -16.664751999999996 0 0 0
159 0 8 -1.05 6.655251999999998 2.415252 -10.304752000000004 0 0 0
160 0 8 -1.05 2.3415820000000003 6.581580999999999 -14.618421999999995 0 0 0
161 0 8 -1.05 4.535251999999998 0.295252 -14.618421999999995 0 0 0
162 0 8 -1.05 4.461582 0.22158200000000006 -10.304752000000004 0 1 0
163 0 8 -1.05 0.295252 2.3415820000000003 -12.424751999999998 0 0 0
164 0 8 -1.05 0.22158200000000006 6.655251999999998 -12.498421999999998 1 0 0
165 0 8 -1.05 2.3415820000000003 4.535251999999998 -16.664751999999996 0 0 0
166 0 8 -1.05 6.655251999999998 4.461582 -8.258422000000003 0 0 0
167 0 8 -1.05 2.415252 2.415252 -14.544752000000003 0 0 0
168 0 8 -1.05 6.581580999999999 6.581580999999999 -10.378423000000005 0 0 0
169 0 7 1.575 1.3184170000000002 1.3184170000000002 -7.161586999999997 0 0 0
170 0 7 1.575 7.678417 7.678417 -0.8015869999999978 0 0 0
171 0 7 1.575 5.5584169999999995 1.3184170000000002 -2.9215870000000024 0 0 0
172 0 7 1.575 3.4384170000000003 7.678417 -5.041587000000003 0 0 0
173 0 7 1.575 1.3184170000000002 5.5584169999999995 -2.9215870000000024 0 0 0
174 0 7 1.575 7.678417 3.4384170000000003 -5.041587000000003 0 0 0
175 0 7 1.575 5.5584169999999995 5.5584169999999995 -7.161586999999997 0 0 0
176 0 7 1.575 3.4384170000000003 3.4384170000000003 -0.8015869999999978 0 0 0
177 0 7 1.575 4.498416999999998 0.258417 -8.221587 0 0 0
178 0 6 1.05 2.3784170000000002 2.3784170000000002 -3.981587000000008 0 0 0
179 0 7 1.575 6.618416999999998 6.618416999999998 -3.981587000000008 0 0 0
180 0 7 1.575 6.618416999999998 4.498416999999998 -1.861587 0 0 0
181 0 6 1.05 2.3784170000000002 4.498416999999998 -6.101587000000002 0 0 0
182 0 7 1.575 0.258417 6.618416999999998 -6.101587000000002 0 0 0
183 0 7 1.575 0.258417 2.3784170000000002 -1.861587 0 0 0
184 0 6 1.05 0.258417 4.498416999999998 -8.221587 0 0 0
185 0 7 1.575 4.498416999999998 2.3784170000000002 -6.101587000000002 0 0 0
186 0 7 1.575 4.498416999999998 6.618416999999998 -1.861587 0 0 0
187 0 7 1.575 2.3784170000000002 0.258417 -1.861587 0 0 0
188 0 6 1.05 6.618416999999998 0.258417 -6.101587000000002 0 0 0
189 0 7 1.575 0.258417 0.258417 -3.981587000000008 0 0 0
190 0 7 1.575 6.618416999999998 2.3784170000000002 -8.221587 0 0 0
191 0 7 1.575 2.3784170000000002 6.618416999999998 -8.221587 0 0 0
192 0 6 1.05 4.498416999999998 4.498416999999998 -3.981587000000008 0 0 0
193 0 8 -1.05 2.415252 0.22158200000000006 0.22157800000000805 0 1 0
194 0 8 -1.05 6.581580999999999 0.295252 -8.184751999999996 0 0 0
195 0 8 -1.05 4.461582 2.415252 -4.0184219999999975 0 0 0
196 0 8 -1.05 4.535251999999998 6.581580999999999 -3.944752000000001 0 0 0
197 0 8 -1.05 0.22158200000000006 4.461582 -1.8247519999999966 1 0 0
198 0 8 -1.05 0.295252 4.535251999999998 -6.138421999999995 0 0 0
199 0 8 -1.05 6.655251999999998 6.655251999999998 -6.064752000000002 0 0 0
200 0 8 -1.05 2.3415820000000003 2.3415820000000003 -1.8984230000000082 0 0 0
201 0 8 -1.05 0.22158200000000006 2.415252 0.22157800000000805 1 0 0
202 0 8 -1.05 0.295252 6.581580999999999 -8.184751999999996 0 0 0
203 0 8 -1.05 4.461582 4.461582 -6.064752000000002 0 0 0
204 0 8 -1.05 4.535251999999998 4.535251999999998 -1.8984230000000082 0 0 0
205 0 8 -1.05 6.655251999999998 0.22158200000000006 -4.0184219999999975 0 1 0
206 0 8 -1.05 2.3415820000000003 0.295252 -3.944752000000001 0 0 0
207 0 8 -1.05 2.415252 6.655251999999998 -1.8247519999999966 0 0 0
208 0 8 -1.05 6.581580999999999 2.3415820000000003 -6.138421999999995 0 0 0
209 0 8 -1.05 0.22158200000000006 0.22158200000000006 -6.064752000000002 1 1 0
210 0 8 -1.05 0.295252 0.295252 -1.8984230000000082 0 0 0
211 0 8 -1.05 2.415252 4.461582 -4.0184219999999975 0 0 0
212 0 8 -1.05 6.581580999999999 4.535251999999998 -3.944752000000001 0 0 0
213 0 8 -1.05 4.461582 6.655251999999998 0.22157800000000805 0 0 0
214 0 8 -1.05 4.535251999999998 2.3415820000000003 -8.184751999999996 0 0 0
215 0 8 -1.05 6.655251999999998 2.415252 -1.8247519999999966 0 0 0
216 0 8 -1.05 2.3415820000000003 6.581580999999999 -6.138421999999995 0 0 0
217 0 8 -1.05 4.535251999999998 0.295252 -6.138421999999995 0 0 0
218 0 8 -1.05 4.461582 0.22158200000000006 -1.8247519999999966 0 1 0
219 0 8 -1.05 0.295252 2.3415820000000003 -3.944752000000001 0 0 0
220 0 8 -1.05 0.22158200000000006 6.655251999999998 -4.0184219999999975 1 0 0
221 0 8 -1.05 2.3415820000000003 4.535251999999998 -8.184751999999996 0 0 0
222 0 8 -1.05 6.655251999999998 4.461582 0.22157800000000805 0 0 0
223 0 8 -1.05 2.415252 2.415252 -6.064752000000002 0 0 0
224 0 8 -1.05 6.581580999999999 6.581580999999999 -1.8984230000000082 0 0 0
225 0 7 1.575 1.3184170000000002 1.3184170000000002 1.3184129999999925 0 0 0
226 0 6 1.05 7.678417 7.678417 7.678413000000006 0 0 0
227 0 6 1.05 5.5584169999999995 1.3184170000000002 5.558413000000002 0 0 0
228 0 7 1.575 3.4384170000000003 7.678417 3.43841299999999 0 0 0
229 0 6 1.05 1.3184170000000002 5.5584169999999995 5.558413000000002 0 0 0
230 0 6 1.05 7.678417 3.4384170000000003 3.43841299999999 0 0 0
231 0 7 1.575 5.5584169999999995 5.5584169999999995 1.3184129999999925 0 0 0
232 0 7 1.575 3.4384170000000003 3.4384170000000003 7.678413000000006 0 0 0
233 0 6 1.05 4.498416999999998 0.258417 0.25841300000000444 0 0 0
234 0 6 1.05 2.3784170000000002 2.3784170000000002 4.498412999999999 0 0 0
235 0 6 1.05 6.618416999999998 6.618416999999998 4.498412999999999 0 0 0
236 0 7 1.575 6.618416999999998 4.498416999999998 6.618413000000004 0 0 0

Velocities

1 0 0 0
2 0 0 0
3 0 0 0
4 0 0 0
5 0 0 0
6 0 0 0
7 0 0 0
8 0 0 0
9 0 0 0
10 0 0 0
11 0 0 0
12 0 0 0
13 0 0 0
14 0 0 0
15 0 0 0
16 0 0 0
17 0 0 0
18 0 0 0
19 0 0 0
20 0 0 0
21 0 0 0
22 0 0 0
23 0 0 0
24 0 0 0
25 0 0 0
26 0 0 0
27 0 0 0
28 0 0 0
29 0 0 0
30 0 0 0
31 0 0 0
32 0 0 0
33 0 0 0
34 0 0 0
35 0 0 0
36 0 0 0
37 0 0 0
38 0 0 0
39 0 0 0
40 0 0 0
41 0 0 0
42 0 0 0
43 0 0 0
44 0 0 0
45 0 0 0
46 0 0 0
47 0 0 0
48 0 0 0
49 0 0 0
50 0 0 0
51 0 0 0
52 0 0 0
53 0 0 0
54 0 0 0
55 0 0 0
56 0 0 0
57 0 0 0
58 0 0 0
59 0 0 0
60 0 0 0
61 0 0 0
62 0 0 0
63 0 0 0
64 0 0 0
65 0 0 0
66 0 0 0
67 0 0 0
68 0 0 0
69 0 0 0
70 0 0 0
71 0 0 0
72 0 0 0
73 0 0 0
74 0 0 0
75 0 0 0
76 0 0 0
77 0 0 0
78 0 0 0
79 0 0 0
80 0 0 0
81 0 0 0
82 0 0 0
83 0 0 0
84 0 0 0
85 0 0 0
86 0 0 0
87 0 0 0
88 0 0 0
89 0 0 0
90 0 0 0
91 0 0 0
92 0 0 0
93 0 0 0
94 0 0 0
95 0 0 0
96 0 0 0
97 0 0 0
98 0 0 0
99 0 0 0
100 0 0 0
101 0 0 0
102 0 0 0
103 0 0 0
104 0 0 0
105 0 0 0
106 0 0 0
107 0 0 0
108 0 0 0
109 0 0 0
110 0 0 0
111 0 0 0
112 0 0 0
113 0 0 0
114 0 0 0
115 0 0 0
116 0 0 0
117 0 0 0
118 0 0 0
119 0 0 0
120 0 0 0
121 0 0 0
122 0 0 0
123 0 0 0
124 0 0 0
125 0 0 0
126 0 0 0
127 0 0 0
128 0 0 0
129 0 0 0
130 0 0 0
131 0 0 0
132 0 0 0
133 0 0 0
134 0 0 0
135 0 0 0
136 0 0 0
137 0 0 0
138 0 0 0
139 0 0 0
140 0 0 0
141 0 0 0
142 0 0 0
143 0 0 0
144 0 0 0
145 0 0 0
146 0 0 0
147 0 0 0
148 0 0 0
149 0 0 0
150 0 0 0
151 0 0 0
152 0 0 0
153 0 0 0
154 0 0 0
155 0 0 0
156 0 0 0
157 0 0 0
158 0 0 0
159 0 0 0
160 0 0 0
161 0 0 0
162 0 0 0
163 0 0 0
164 0 0 0
165 0 0 0
166 0 0 0
167 0 0 0
168 0 0 0
169 0 0 0
170 0 0 0
171 0 0 0
172 0 0 0
173 0 0 0
174 0 0 0
175 0 0 0
176 0 0 0
177 0 0 0
178 0 0 0
179 0 0 0
180 0 0 0
181 0 0 0
182 0 0 0
183 0 0 0
184 0 0 0
185 0 0 0
186 0 0 0
187 0 0 0
188 0 0 0
189 0 0 0
190 0 0 0
191 0 0 0
192 0 0 0
193 0 0 0
194 0 0 0
195 0 0 0
196 0 0 0
197 0 0 0
198 0 0 0
199 0 0 0
200 0 0 0
201 0 0 0
202 0 0 0
203 0 0 0
204 0 0 0
205 0 0 0
206 0 0 0
207 0 0 0
208 0 0 0
209 0 0 0
210 0 0 0
211 0 0 0
212 0 0 0
213 0 0 0
214 0 0 0
215 0 0 0
216 0 0 0
217 0 0 0
218 0 0 0
219 0 0 0
220 0 0 0
221 0 0 0
222 0 0 0
223 0 0 0
224 0 0 0
225 0 0 0
226 0 0 0
227 0 0 0
228 0 0 0
229 0 0 0
230 0 0 0
231 0 0 0
232 0 0 0
233 0 0 0
234 0 0 0
235 0 0 0
236 0 0 0
