LAMMPS data file via write_data, version 17 Feb 2022, timestep = 0

256 atoms
10 atom types
16 bonds
6 bond types
12 angles
6 angle types
0 dihedrals
2 dihedral types
4 impropers
2 improper types

0 8.48 xlo xhi
0 8.48 ylo yhi
-40.390587 40.907413 zlo zhi

Masses

1 12.011
2 1.008
3 15.9994
4 15.9994
5 1.008
6 55.845
7 55.845
8 15.9994
9 15.9994
10 1.008

Pair Coeffs # lj/cut/coul/cut

1 0.0988 3.31521
2 0.0161 2.4473
3 0.1463 3.04812
4 0.093 3.24287
5 0.0047 0.537925
6 9.0298e-07 4.9062
7 9.0298e-07 4.9062
8 0.1554 3.16554
9 0.1554 3.16554
10 0 0

Bond Coeffs # harmonic

1 361.8 1.105
2 652.57 1.218
3 383.13 1.351
4 563.51 0.973
5 554.135 1
6 0 2.08

Angle Coeffs # harmonic

1 51.617 106.55
2 65.93 123.65
3 65.262 109.49
4 115.745 122.1
5 118.817 130.25
6 30 109.47

Dihedral Coeffs # fourier

1 1 2.3 2 180
2 2 2.3 2 180 1.9 1 0

Improper Coeffs # cvff

1 10.5 -1 2
2 10.5 -1 2

Atoms # full

21 0 8 -1.05 6.478013000000001 4.4826049999999995 -16.738421999999996 -1 1 0
20 0 8 -1.05 4.284343 6.676275 -16.738421999999996 0 0 0
1 0 8 -1.05 0.04434299999999958 2.4362749999999984 -16.738421999999996 0 1 0
2 0 8 -1.05 2.238012999999998 0.2426049999999993 -16.738421999999996 0 1 0
49 0 7 1.575 5.381178 5.57944 -15.641586999999998 -1 0 0
26 0 7 1.575 1.1411779999999991 1.3394399999999997 -15.641586999999998 0 1 0
13 0 7 1.575 0.08117799999999775 4.5194399999999995 -16.701586999999996 0 0 0
35 0 6 1.05 6.441178000000001 0.27943999999999747 -14.581587000000003 -1 1 0
31 0 7 1.575 4.321178 2.3994399999999985 -14.581587000000003 -1 1 0
4 0 7 1.575 4.321178 0.27943999999999747 -16.701586999999996 -1 1 0
39 0 7 1.575 0.08117799999999775 6.6394400000000005 -14.581587000000003 0 0 0
43 0 6 1.05 2.201177999999998 4.5194399999999995 -14.581587000000003 0 0 0
16 0 6 1.05 2.201177999999998 6.6394400000000005 -16.701586999999996 0 0 0
9 0 7 1.575 6.441178000000001 2.3994399999999985 -16.701586999999996 -1 1 0
15 0 8 -1.05 2.1643419999999987 4.556274999999999 -16.664751999999996 0 0 0
32 0 8 -1.05 4.358013 0.3162749999999974 -14.618421999999995 -1 1 0
29 0 8 -1.05 2.238012999999998 2.4362749999999984 -14.544752000000003 0 1 0
5 0 9 -1 4.358013 2.3626039999999975 -16.664751999999996 -1 1 0
23 0 8 -1.05 0.04434299999999958 0.2426049999999993 -14.544752000000003 0 1 0
42 0 8 -1.05 2.1643419999999987 6.6026050000000005 -14.618421999999995 0 0 0
46 0 8 -1.05 4.284343 4.4826049999999995 -14.544752000000003 0 1 0
14 0 9 -1 0.1180129999999977 6.6026050000000005 -16.664751999999996 0 0 0
34 0 8 -1.05 6.404343000000001 2.3626039999999975 -14.618421999999995 -1 1 0
40 0 8 -1.05 0.1180129999999977 4.556274999999999 -14.618421999999995 0 0 0
7 0 8 -1.05 6.404343000000001 0.3162749999999974 -16.664751999999996 -1 1 0
52 0 8 -1.05 6.478013000000001 6.676275 -14.544752000000003 -1 0 0
11 0 1 0.731 7.500761 3.4590229999999993 -19.290587 -1 1 0
10 0 2 -0.123 7.500761 3.4590229999999993 -20.390587 -1 1 0
12 0 3 -0.804 0.08076099999999897 4.519023 -18.590587 0 1 0
8 0 3 -0.804 6.440761 2.399022999999999 -18.590587 -1 1 0
3 0 10 0.425 3.697761 3.866023 -17.183587 -1 1 0
19 0 1 0.731 3.438 7.678 -19.290587 0 0 0
18 0 2 -0.123 3.438 7.678 -20.390587 0 0 0
6 0 3 -0.804 4.498 0.2579999999999991 -18.590587 0 1 0
17 0 3 -0.804 2.378 6.618 -18.590587 0 0 0
22 0 10 0.425 8.115 8.085 -17.183587 -1 0 0
60 0 7 1.575 3.2611779999999992 3.459439999999999 -9.281587000000002 0 1 0
41 0 7 1.575 1.1411779999999991 5.57944 -11.401586999999996 0 0 0
37 0 7 1.575 7.501178 3.459439999999999 -13.521587000000004 -1 1 0
33 0 7 1.575 5.381178 1.3394399999999997 -11.401586999999996 -1 1 0
45 0 7 1.575 3.2611779999999992 7.69944 -13.521587000000004 0 0 0
80 0 7 1.575 7.501178 7.69944 -9.281587000000002 -1 0 0
51 0 6 1.05 6.441178000000001 6.6394400000000005 -12.461586999999994 -1 0 0
28 0 7 1.575 2.201177999999998 2.3994399999999985 -12.461586999999994 0 1 0
58 0 7 1.575 2.201177999999998 0.27943999999999747 -10.341587000000004 0 1 0
74 0 6 1.05 4.321178 6.6394400000000005 -10.341587000000004 -1 0 0
54 0 6 1.05 0.08117799999999775 2.3994399999999985 -10.341587000000004 0 1 0
78 0 7 1.575 6.441178000000001 4.5194399999999995 -10.341587000000004 -1 0 0
47 0 7 1.575 4.321178 4.5194399999999995 -12.461586999999994 -1 0 0
24 0 6 1.05 0.08117799999999775 0.27943999999999747 -12.461586999999994 0 1 0
79 0 8 -1.05 6.478013000000001 4.4826049999999995 -8.258422000000003 -1 1 0
38 0 8 -1.05 0.04434299999999958 6.676275 -12.498421999999998 0 0 0
25 0 8 -1.05 0.1180129999999977 2.3626039999999975 -12.424751999999998 0 1 0
61 0 8 -1.05 4.284343 0.2426049999999993 -10.304752000000004 0 1 0
77 0 8 -1.05 6.404343000000001 6.6026050000000005 -10.378423000000005 -1 0 0
73 0 8 -1.05 4.284343 6.676275 -8.258422000000003 0 0 0
55 0 8 -1.05 0.1180129999999977 0.3162749999999974 -10.378423000000005 0 1 0
44 0 8 -1.05 2.238012999999998 4.4826049999999995 -12.498421999999998 0 1 0
50 0 8 -1.05 6.404343000000001 4.556274999999999 -12.424751999999998 -1 0 0
66 0 8 -1.05 6.478013000000001 2.4362749999999984 -10.304752000000004 -1 1 0
75 0 8 -1.05 4.358013 4.556274999999999 -10.378423000000005 -1 0 0
36 0 8 -1.05 6.478013000000001 0.2426049999999993 -12.498421999999998 -1 1 0
27 0 8 -1.05 2.1643419999999987 0.3162749999999974 -12.424751999999998 0 1 0
53 0 8 -1.05 0.04434299999999958 2.4362749999999984 -8.258422000000003 0 1 0
72 0 8 -1.05 2.238012999999998 6.676275 -10.304752000000004 0 0 0
67 0 8 -1.05 0.04434299999999958 4.4826049999999995 -10.304752000000004 0 1 0
48 0 8 -1.05 4.358013 6.6026050000000005 -12.424751999999998 -1 0 0
30 0 8 -1.05 4.284343 2.4362749999999984 -12.498421999999998 0 1 0
59 0 8 -1.05 2.238012999999998 0.2426049999999993 -8.258422000000003 0 1 0
57 0 8 -1.05 2.1643419999999987 2.3626039999999975 -10.378423000000005 0 1 0
76 0 7 1.575 5.381178 5.57944 -7.161586999999997 -1 0 0
56 0 7 1.575 1.1411779999999991 1.3394399999999997 -7.161586999999997 0 1 0
68 0 7 1.575 0.08117799999999775 4.5194399999999995 -8.221587 0 0 0
62 0 7 1.575 4.321178 0.27943999999999747 -8.221587 -1 1 0
71 0 7 1.575 2.201177999999998 6.6394400000000005 -8.221587 0 0 0
65 0 7 1.575 6.441178000000001 2.3994399999999985 -8.221587 -1 1 0
70 0 8 -1.05 2.1643419999999987 4.556274999999999 -8.184751999999996 0 0 0
63 0 8 -1.05 4.358013 2.3626039999999975 -8.184751999999996 -1 1 0
69 0 8 -1.05 0.1180129999999977 6.6026050000000005 -8.184751999999996 0 0 0
64 0 8 -1.05 6.404343000000001 0.3162749999999974 -8.184751999999996 -1 1 0
118 0 7 1.575 3.2611779999999992 3.459439999999999 -0.8015869999999978 0 1 0
98 0 7 1.575 1.1411779999999991 5.57944 -2.9215870000000024 0 0 0
94 0 7 1.575 7.501178 3.459439999999999 -5.041587000000003 -1 1 0
90 0 7 1.575 5.381178 1.3394399999999997 -2.9215870000000024 -1 1 0
102 0 7 1.575 3.2611779999999992 7.69944 -5.041587000000003 0 0 0
148 0 7 1.575 7.501178 7.69944 -0.8015869999999978 -1 0 0
107 0 7 1.575 6.441178000000001 6.6394400000000005 -3.981587000000008 -1 0 0
85 0 7 1.575 2.201177999999998 2.3994399999999985 -3.981587000000008 0 1 0
115 0 7 1.575 2.201177999999998 0.27943999999999747 -1.861587 0 1 0
92 0 7 1.575 6.441178000000001 0.27943999999999747 -6.101587000000002 -1 1 0
88 0 6 1.05 4.321178 2.3994399999999985 -6.101587000000002 -1 1 0
141 0 6 1.05 4.321178 6.6394400000000005 -1.861587 -1 0 0
96 0 6 1.05 0.08117799999999775 6.6394400000000005 -6.101587000000002 0 0 0
111 0 6 1.05 0.08117799999999775 2.3994399999999985 -1.861587 0 1 0
145 0 7 1.575 6.441178000000001 4.5194399999999995 -1.861587 -1 0 0
100 0 7 1.575 2.201177999999998 4.5194399999999995 -6.101587000000002 0 0 0
104 0 6 1.05 4.321178 4.5194399999999995 -3.981587000000008 -1 0 0
82 0 6 1.05 0.08117799999999775 0.27943999999999747 -3.981587000000008 0 1 0
95 0 8 -1.05 0.04434299999999958 6.676275 -4.0184219999999975 0 0 0
83 0 8 -1.05 0.1180129999999977 2.3626039999999975 -3.944752000000001 0 1 0
119 0 8 -1.05 4.284343 0.2426049999999993 -1.8247519999999966 0 1 0
89 0 8 -1.05 4.358013 0.3162749999999974 -6.138421999999995 -1 1 0
86 0 8 -1.05 2.238012999999998 2.4362749999999984 -6.064752000000002 0 1 0
144 0 8 -1.05 6.404343000000001 6.6026050000000005 -1.8984230000000082 -1 0 0
81 0 8 -1.05 0.04434299999999958 0.2426049999999993 -6.064752000000002 0 1 0
112 0 8 -1.05 0.1180129999999977 0.3162749999999974 -1.8984230000000082 0 1 0
101 0 8 -1.05 2.238012999999998 4.4826049999999995 -4.0184219999999975 0 1 0
106 0 8 -1.05 6.404343000000001 4.556274999999999 -3.944752000000001 -1 0 0
128 0 8 -1.05 6.478013000000001 2.4362749999999984 -1.8247519999999966 -1 1 0
99 0 8 -1.05 2.1643419999999987 6.6026050000000005 -6.138421999999995 0 0 0
103 0 8 -1.05 4.284343 4.4826049999999995 -6.064752000000002 0 1 0
142 0 8 -1.05 4.358013 4.556274999999999 -1.8984230000000082 -1 0 0
93 0 8 -1.05 6.478013000000001 0.2426049999999993 -4.0184219999999975 -1 1 0
84 0 8 -1.05 2.1643419999999987 0.3162749999999974 -3.944752000000001 0 1 0
138 0 8 -1.05 2.238012999999998 6.676275 -1.8247519999999966 0 0 0
91 0 8 -1.05 6.404343000000001 2.3626039999999975 -6.138421999999995 -1 1 0
97 0 8 -1.05 0.1180129999999977 4.556274999999999 -6.138421999999995 0 0 0
129 0 8 -1.05 0.04434299999999958 4.4826049999999995 -1.8247519999999966 0 1 0
105 0 8 -1.05 4.358013 6.6026050000000005 -3.944752000000001 -1 0 0
87 0 8 -1.05 4.284343 2.4362749999999984 -4.0184219999999975 0 1 0
108 0 8 -1.05 6.478013000000001 6.676275 -6.064752000000002 -1 0 0
114 0 8 -1.05 2.1643419999999987 2.3626039999999975 -1.8984230000000082 0 1 0
154 0 8 -1.05 2.1643419999999987 2.3626039999999975 6.581576999999989 0 1 0
147 0 8 -1.05 6.478013000000001 6.676275 2.415247999999991 -1 0 0
124 0 8 -1.05 6.404343000000001 0.3162749999999974 0.29524799999999374 -1 1 0
158 0 8 -1.05 4.284343 2.4362749999999984 4.461577999999996 0 1 0
172 0 8 -1.05 4.358013 6.6026050000000005 4.535248000000003 -1 0 0
163 0 8 -1.05 0.04434299999999958 4.4826049999999995 6.655248000000007 0 1 0
132 0 8 -1.05 0.1180129999999977 4.556274999999999 2.3415779999999913 0 0 0
125 0 8 -1.05 6.404343000000001 2.3626039999999975 2.3415779999999913 -1 1 0
167 0 8 -1.05 2.238012999999998 6.676275 6.655248000000007 0 0 0
133 0 8 -1.05 0.1180129999999977 6.6026050000000005 0.29524799999999374 0 0 0
153 0 8 -1.05 2.1643419999999987 0.3162749999999974 4.535248000000003 0 1 0
160 0 8 -1.05 6.478013000000001 0.2426049999999993 4.461577999999996 -1 1 0
171 0 8 -1.05 4.358013 4.556274999999999 6.581576999999989 -1 0 0
139 0 8 -1.05 4.284343 4.4826049999999995 2.415247999999991 0 1 0
135 0 8 -1.05 2.1643419999999987 6.6026050000000005 2.3415779999999913 0 0 0
161 0 8 -1.05 6.478013000000001 2.4362749999999984 6.655248000000007 -1 1 0
173 0 8 -1.05 6.404343000000001 4.556274999999999 4.535248000000003 -1 0 0
166 0 8 -1.05 2.238012999999998 4.4826049999999995 4.461577999999996 0 1 0
151 0 8 -1.05 0.1180129999999977 0.3162749999999974 6.581576999999989 0 1 0
109 0 8 -1.05 0.04434299999999958 0.2426049999999993 2.415247999999991 0 1 0
123 0 8 -1.05 4.358013 2.3626039999999975 0.29524799999999374 -1 1 0
174 0 8 -1.05 6.404343000000001 6.6026050000000005 6.581576999999989 -1 0 0
117 0 8 -1.05 2.238012999999998 2.4362749999999984 2.415247999999991 0 1 0
122 0 8 -1.05 4.358013 0.3162749999999974 2.3415779999999913 -1 1 0
157 0 8 -1.05 4.284343 0.2426049999999993 6.655248000000007 0 1 0
152 0 8 -1.05 0.1180129999999977 2.3626039999999975 4.535248000000003 0 1 0
164 0 8 -1.05 0.04434299999999958 6.676275 4.461577999999996 0 0 0
134 0 8 -1.05 2.1643419999999987 4.556274999999999 0.29524799999999374 0 0 0
149 0 6 1.05 0.08117799999999775 0.27943999999999747 4.498412999999999 0 1 0
127 0 7 1.575 6.441178000000001 2.3994399999999985 0.25841300000000444 -1 1 0
137 0 7 1.575 2.201177999999998 6.6394400000000005 0.25841300000000444 0 0 0
169 0 6 1.05 4.321178 4.5194399999999995 4.498412999999999 -1 0 0
136 0 7 1.575 2.201177999999998 4.5194399999999995 2.3784129999999877 0 0 0
175 0 7 1.575 6.441178000000001 4.5194399999999995 6.618413000000004 -1 0 0
150 0 7 1.575 0.08117799999999775 2.3994399999999985 6.618413000000004 0 1 0
131 0 6 1.05 0.08117799999999775 6.6394400000000005 2.3784129999999877 0 0 0
120 0 7 1.575 4.321178 0.27943999999999747 0.25841300000000444 -1 1 0
170 0 6 1.05 4.321178 6.6394400000000005 6.618413000000004 -1 0 0
121 0 7 1.575 4.321178 2.3994399999999985 2.3784129999999877 -1 1 0
126 0 7 1.575 6.441178000000001 0.27943999999999747 2.3784129999999877 -1 1 0
146 0 8 -1.05 6.478013000000001 4.4826049999999995 0.22157800000000805 -1 1 0
140 0 8 -1.05 4.284343 6.676275 0.22157800000000805 0 0 0
110 0 8 -1.05 0.04434299999999958 2.4362749999999984 0.22157800000000805 0 1 0
116 0 8 -1.05 2.238012999999998 0.2426049999999993 0.22157800000000805 0 1 0
143 0 7 1.575 5.381178 5.57944 1.3184129999999925 -1 0 0
165 0 7 1.575 1.1411779999999991 5.57944 5.558413000000002 0 0 0
162 0 7 1.575 7.501178 3.459439999999999 3.43841299999999 -1 1 0
159 0 7 1.575 5.381178 1.3394399999999997 5.558413000000002 -1 1 0
168 0 7 1.575 3.2611779999999992 7.69944 3.43841299999999 0 0 0
113 0 7 1.575 1.1411779999999991 1.3394399999999997 1.3184129999999925 0 1 0
130 0 7 1.575 0.08117799999999775 4.5194399999999995 0.25841300000000444 0 0 0
176 0 7 1.575 6.441178000000001 6.6394400000000005 4.498412999999999 -1 0 0
156 0 6 1.05 2.201177999999998 2.3994399999999985 4.498412999999999 0 1 0
155 0 6 1.05 2.201177999999998 0.27943999999999747 6.618413000000004 0 1 0
203 0 8 -1.05 6.478013000000001 6.676275 10.895247999999995 -1 0 0
187 0 8 -1.05 6.404343000000001 0.3162749999999974 8.775248000000012 -1 1 0
215 0 8 -1.05 4.284343 2.4362749999999984 12.941577999999993 0 1 0
229 0 8 -1.05 4.358013 6.6026050000000005 13.015247999999993 -1 0 0
193 0 8 -1.05 0.1180129999999977 4.556274999999999 10.821577999999995 0 0 0
188 0 8 -1.05 6.404343000000001 2.3626039999999975 10.821577999999995 -1 1 0
194 0 8 -1.05 0.1180129999999977 6.6026050000000005 8.775248000000012 0 0 0
209 0 8 -1.05 2.1643419999999987 0.3162749999999974 13.015247999999993 0 1 0
217 0 8 -1.05 6.478013000000001 0.2426049999999993 12.941577999999993 -1 1 0
199 0 8 -1.05 4.284343 4.4826049999999995 10.895247999999995 0 1 0
196 0 8 -1.05 2.1643419999999987 6.6026050000000005 10.821577999999995 0 0 0
230 0 8 -1.05 6.404343000000001 4.556274999999999 13.015247999999993 -1 0 0
223 0 8 -1.05 2.238012999999998 4.4826049999999995 12.941577999999993 0 1 0
177 0 8 -1.05 0.04434299999999958 0.2426049999999993 10.895247999999995 0 1 0
186 0 8 -1.05 4.358013 2.3626039999999975 8.775248000000012 -1 1 0
181 0 8 -1.05 2.238012999999998 2.4362749999999984 10.895247999999995 0 1 0
185 0 8 -1.05 4.358013 0.3162749999999974 10.821577999999995 -1 1 0
208 0 8 -1.05 0.1180129999999977 2.3626039999999975 13.015247999999993 0 1 0
221 0 8 -1.05 0.04434299999999958 6.676275 12.941577999999993 0 0 0
195 0 8 -1.05 2.1643419999999987 4.556274999999999 8.775248000000012 0 0 0
205 0 7 1.575 0.08117799999999775 0.27943999999999747 12.978412999999996 0 1 0
190 0 7 1.575 6.441178000000001 2.3994399999999985 8.738413000000008 -1 1 0
198 0 6 1.05 2.201177999999998 6.6394400000000005 8.738413000000008 0 0 0
226 0 6 1.05 4.321178 4.5194399999999995 12.978412999999996 -1 0 0
197 0 7 1.575 2.201177999999998 4.5194399999999995 10.858412999999992 0 0 0
192 0 7 1.575 0.08117799999999775 6.6394400000000005 10.858412999999992 0 0 0
183 0 7 1.575 4.321178 0.27943999999999747 8.738413000000008 -1 1 0
184 0 7 1.575 4.321178 2.3994399999999985 10.858412999999992 -1 1 0
189 0 6 1.05 6.441178000000001 0.27943999999999747 10.858412999999992 -1 1 0
212 0 6 1.05 2.201177999999998 2.3994399999999985 12.978412999999996 0 1 0
233 0 6 1.05 6.441178000000001 6.6394400000000005 12.978412999999996 -1 0 0
191 0 7 1.575 0.08117799999999775 4.5194399999999995 8.738413000000008 0 0 0
179 0 7 1.575 1.1411779999999991 1.3394399999999997 9.798412999999996 0 1 0
225 0 7 1.575 3.2611779999999992 7.69944 11.918412999999994 0 0 0
216 0 7 1.575 5.381178 1.3394399999999997 14.038412999999998 -1 1 0
219 0 7 1.575 7.501178 3.459439999999999 11.918412999999994 -1 1 0
222 0 7 1.575 1.1411779999999991 5.57944 14.038412999999998 0 0 0
201 0 7 1.575 5.381178 5.57944 9.798412999999996 -1 0 0
180 0 8 -1.05 2.238012999999998 0.2426049999999993 8.701578000000005 0 1 0
178 0 8 -1.05 0.04434299999999958 2.4362749999999984 8.701578000000005 0 1 0
200 0 8 -1.05 4.284343 6.676275 8.701578000000005 0 0 0
202 0 8 -1.05 6.478013000000001 4.4826049999999995 8.701578000000005 -1 1 0
182 0 7 1.575 3.2611779999999992 3.459439999999999 7.678413000000006 0 1 0
204 0 7 1.575 7.501178 7.69944 7.678413000000006 -1 0 0
239 0 7 1.575 4.321178 0.27943999999999747 17.218413000000005 -1 1 0
252 0 7 1.575 2.201177999999998 6.6394400000000005 17.218413000000005 0 0 0
245 0 7 1.575 6.441178000000001 2.3994399999999985 17.218413000000005 -1 1 0
246 0 7 1.575 0.08117799999999775 4.5194399999999995 17.218413000000005 0 0 0
251 0 8 -1.05 2.1643419999999987 4.556274999999999 17.25524800000001 0 0 0
240 0 8 -1.05 4.358013 2.3626039999999975 17.25524800000001 -1 1 0
247 0 8 -1.05 0.1180129999999977 6.6026050000000005 17.25524800000001 0 0 0
243 0 8 -1.05 6.404343000000001 0.3162749999999974 17.25524800000001 -1 1 0
210 0 8 -1.05 2.1643419999999987 2.3626039999999975 15.061576999999993 0 1 0
237 0 8 -1.05 2.238012999999998 0.2426049999999993 17.18157800000001 0 1 0
220 0 8 -1.05 0.04434299999999958 4.4826049999999995 15.135248000000011 0 1 0
224 0 8 -1.05 2.238012999999998 6.676275 15.135248000000011 0 0 0
235 0 9 -1 0.04434299999999958 2.4362749999999984 17.18157800000001 0 1 0
228 0 8 -1.05 4.358013 4.556274999999999 15.061576999999993 -1 0 0
218 0 8 -1.05 6.478013000000001 2.4362749999999984 15.135248000000011 -1 1 0
207 0 8 -1.05 0.1180129999999977 0.3162749999999974 15.061576999999993 0 1 0
254 0 9 -1 4.284343 6.676275 17.18157800000001 0 0 0
231 0 8 -1.05 6.404343000000001 6.6026050000000005 15.061576999999993 -1 0 0
214 0 8 -1.05 4.284343 0.2426049999999993 15.135248000000011 0 1 0
256 0 8 -1.05 6.478013000000001 4.4826049999999995 17.18157800000001 -1 1 0
232 0 7 1.575 6.441178000000001 4.5194399999999995 15.098413000000008 -1 0 0
206 0 7 1.575 0.08117799999999775 2.3994399999999985 15.098413000000008 0 1 0
227 0 7 1.575 4.321178 6.6394400000000005 15.098413000000008 -1 0 0
211 0 7 1.575 2.201177999999998 0.27943999999999747 15.098413000000008 0 1 0
234 0 7 1.575 7.501178 7.69944 16.15841300000001 -1 0 0
213 0 7 1.575 3.2611779999999992 3.459439999999999 16.15841300000001 0 1 0
241 0 1 0.731 5.380761 1.3390229999999992 19.807413 -1 1 0
242 0 2 -0.123 5.380761 1.3390229999999992 20.907413 -1 1 0
244 0 3 -0.804 6.440761 2.3990229999999997 19.107413 -1 1 0
238 0 3 -0.804 4.320761 0.2790229999999987 19.107413 -1 1 0
236 0 10 0.425 0.8827609999999995 1.4810230000000004 17.700413 0 1 0
249 0 1 0.731 1.318 5.558 19.807413 0 0 0
250 0 2 -0.123 1.318 5.558 20.907413 0 0 0
253 0 3 -0.804 2.378 6.618 19.107413 0 0 0
248 0 3 -0.804 0.258 4.498 19.107413 0 0 0
255 0 10 0.425 5.3 5.7 17.700413 0 0 0

Velocities

21 0 0 0
20 0 0 0
1 0 0 0
2 0 0 0
49 0 0 0
26 0 0 0
13 0 0 0
35 0 0 0
31 0 0 0
4 0 0 0
39 0 0 0
43 0 0 0
16 0 0 0
9 0 0 0
15 0 0 0
32 0 0 0
29 0 0 0
5 0 0 0
23 0 0 0
42 0 0 0
46 0 0 0
14 0 0 0
34 0 0 0
40 0 0 0
7 0 0 0
52 0 0 0
11 0 0 0
10 0 0 0
12 0 0 0
8 0 0 0
3 0 0 0
19 0 0 0
18 0 0 0
6 0 0 0
17 0 0 0
22 0 0 0
60 0 0 0
41 0 0 0
37 0 0 0
33 0 0 0
45 0 0 0
80 0 0 0
51 0 0 0
28 0 0 0
58 0 0 0
74 0 0 0
54 0 0 0
78 0 0 0
47 0 0 0
24 0 0 0
79 0 0 0
38 0 0 0
25 0 0 0
61 0 0 0
77 0 0 0
73 0 0 0
55 0 0 0
44 0 0 0
50 0 0 0
66 0 0 0
75 0 0 0
36 0 0 0
27 0 0 0
53 0 0 0
72 0 0 0
67 0 0 0
48 0 0 0
30 0 0 0
59 0 0 0
57 0 0 0
76 0 0 0
56 0 0 0
68 0 0 0
62 0 0 0
71 0 0 0
65 0 0 0
70 0 0 0
63 0 0 0
69 0 0 0
64 0 0 0
118 0 0 0
98 0 0 0
94 0 0 0
90 0 0 0
102 0 0 0
148 0 0 0
107 0 0 0
85 0 0 0
115 0 0 0
92 0 0 0
88 0 0 0
141 0 0 0
96 0 0 0
111 0 0 0
145 0 0 0
100 0 0 0
104 0 0 0
82 0 0 0
95 0 0 0
83 0 0 0
119 0 0 0
89 0 0 0
86 0 0 0
144 0 0 0
81 0 0 0
112 0 0 0
101 0 0 0
106 0 0 0
128 0 0 0
99 0 0 0
103 0 0 0
142 0 0 0
93 0 0 0
84 0 0 0
138 0 0 0
91 0 0 0
97 0 0 0
129 0 0 0
105 0 0 0
87 0 0 0
108 0 0 0
114 0 0 0
154 0 0 0
147 0 0 0
124 0 0 0
158 0 0 0
172 0 0 0
163 0 0 0
132 0 0 0
125 0 0 0
167 0 0 0
133 0 0 0
153 0 0 0
160 0 0 0
171 0 0 0
139 0 0 0
135 0 0 0
161 0 0 0
173 0 0 0
166 0 0 0
151 0 0 0
109 0 0 0
123 0 0 0
174 0 0 0
117 0 0 0
122 0 0 0
157 0 0 0
152 0 0 0
164 0 0 0
134 0 0 0
149 0 0 0
127 0 0 0
137 0 0 0
169 0 0 0
136 0 0 0
175 0 0 0
150 0 0 0
131 0 0 0
120 0 0 0
170 0 0 0
121 0 0 0
126 0 0 0
146 0 0 0
140 0 0 0
110 0 0 0
116 0 0 0
143 0 0 0
165 0 0 0
162 0 0 0
159 0 0 0
168 0 0 0
113 0 0 0
130 0 0 0
176 0 0 0
156 0 0 0
155 0 0 0
203 0 0 0
187 0 0 0
215 0 0 0
229 0 0 0
193 0 0 0
188 0 0 0
194 0 0 0
209 0 0 0
217 0 0 0
199 0 0 0
196 0 0 0
230 0 0 0
223 0 0 0
177 0 0 0
186 0 0 0
181 0 0 0
185 0 0 0
208 0 0 0
221 0 0 0
195 0 0 0
205 0 0 0
190 0 0 0
198 0 0 0
226 0 0 0
197 0 0 0
192 0 0 0
183 0 0 0
184 0 0 0
189 0 0 0
212 0 0 0
233 0 0 0
191 0 0 0
179 0 0 0
225 0 0 0
216 0 0 0
219 0 0 0
222 0 0 0
201 0 0 0
180 0 0 0
178 0 0 0
200 0 0 0
202 0 0 0
182 0 0 0
204 0 0 0
239 0 0 0
252 0 0 0
245 0 0 0
246 0 0 0
251 0 0 0
240 0 0 0
247 0 0 0
243 0 0 0
210 0 0 0
237 0 0 0
220 0 0 0
224 0 0 0
235 0 0 0
228 0 0 0
218 0 0 0
207 0 0 0
254 0 0 0
231 0 0 0
214 0 0 0
256 0 0 0
232 0 0 0
206 0 0 0
227 0 0 0
211 0 0 0
234 0 0 0
213 0 0 0
241 0 0 0
242 0 0 0
244 0 0 0
238 0 0 0
236 0 0 0
249 0 0 0
250 0 0 0
253 0 0 0
248 0 0 0
255 0 0 0

Bonds

1 5 5 3
2 5 14 22
3 1 11 10
4 2 11 12
5 2 11 8
6 1 19 18
7 2 19 6
8 2 19 17
9 5 235 236
10 5 254 255
11 1 241 242
12 2 241 244
13 2 241 238
14 1 249 250
15 2 249 253
16 2 249 248

Angles

1 5 12 11 8
2 2 10 11 8
3 2 10 11 12
4 5 6 19 17
5 2 18 19 17
6 2 18 19 6
7 5 244 241 238
8 2 242 241 238
9 2 242 241 244
10 5 253 249 248
11 2 250 249 248
12 2 250 249 253

Impropers

1 2 12 10 11 8
2 2 6 18 19 17
3 2 244 242 241 238
4 2 253 250 249 248
