LAMMPS data file via write_data, version 17 Feb 2022, timestep = 2000

2340 atoms
10 atom types
180 bonds
6 bond types
324 angles
6 angle types
0 dihedrals
2 dihedral types
36 impropers
2 improper types

0 25.44 xlo xhi
0 25.44 ylo yhi
-40.390587 40.907413000000005 zlo zhi

Masses

1 12.011
2 1.008
3 15.9994
4 15.9994
5 1.008
6 55.845
7 55.845
8 15.9994
9 15.9994
10 1.008

Pair Coeffs # lj/cut/coul/cut

1 0.0988 3.31521
2 0.0161 2.4473
3 0.1463 3.04812
4 0.093 3.24287
5 0.0047 0.537925
6 9.0298e-07 4.9062
7 9.0298e-07 4.9062
8 0.1554 3.16554
9 0.1554 3.16554
10 0 0

Bond Coeffs # harmonic

1 361.8 1.105
2 652.57 1.218
3 383.13 1.351
4 563.51 0.973
5 554.135 1
6 0 2.08

Angle Coeffs # harmonic

1 51.617 106.55
2 65.93 123.65
3 65.262 109.49
4 115.745 122.1
5 118.817 130.25
6 30 109.47

Dihedral Coeffs # fourier

1 1 2.3 2 180
2 2 2.3 2 180 1.9 1 0

Improper Coeffs # cvff

1 10.5 -1 2
2 10.5 -1 2

Atoms # full

20 0 1 0.731 3.438 7.678 -19.290587 0 0 0
19 0 2 -0.123 3.438 7.678 -20.390587 0 0 0
18 0 3 -0.804 2.378 6.618 -18.590587 0 0 0
1573 0 3 -0.804 0.08076099999999897 4.519023000000001 -18.590587 0 1 0
1567 0 3 -0.804 4.498 0.2579999999999991 -18.590587 0 1 0
1832 0 1 0.731 7.500761 3.4590229999999984 -19.290587 0 1 0
1831 0 2 -0.123 7.500761 3.4590229999999984 -20.390587 0 1 0
1829 0 3 -0.804 6.440761 2.3990229999999997 -18.590587 0 1 0
280 0 1 0.731 11.918000000000001 7.678 -19.290587 0 0 0
279 0 2 -0.123 11.918000000000001 7.678 -20.390587 0 0 0
278 0 3 -0.804 10.858 6.618 -18.590587 0 0 0
1833 0 3 -0.804 8.560761 4.519023000000001 -18.590587 0 1 0
1827 0 3 -0.804 12.978000000000002 0.2579999999999991 -18.590587 0 1 0
2092 0 1 0.731 15.980761000000001 3.4590229999999984 -19.290587 0 1 0
2091 0 2 -0.123 15.980761000000001 3.4590229999999984 -20.390587 0 1 0
2089 0 3 -0.804 14.920761 2.3990229999999997 -18.590587 0 1 0
1572 0 1 0.731 24.460761 3.4590229999999984 -19.290587 -1 1 0
1571 0 2 -0.123 24.460761 3.4590229999999984 -20.390587 -1 1 0
1569 0 3 -0.804 23.400761000000003 2.3990229999999997 -18.590587 -1 1 0
540 0 1 0.731 20.398 7.678 -19.290587 0 0 0
539 0 2 -0.123 20.398 7.678 -20.390587 0 0 0
538 0 3 -0.804 19.338 6.618 -18.590587 0 0 0
2093 0 3 -0.804 17.040761 4.519023000000001 -18.590587 0 1 0
2087 0 3 -0.804 21.458000000000002 0.2579999999999991 -18.590587 0 1 0
13 0 3 -0.804 0.08076099999999897 12.999023000000001 -18.590587 0 0 0
7 0 3 -0.804 4.498 8.738 -18.590587 0 0 0
800 0 1 0.731 3.438 16.158 -19.290587 0 0 0
799 0 2 -0.123 3.438 16.158 -20.390587 0 0 0
798 0 3 -0.804 2.378 15.098 -18.590587 0 0 0
272 0 1 0.731 7.500761 11.939022999999999 -19.290587 0 0 0
271 0 2 -0.123 7.500761 11.939022999999999 -20.390587 0 0 0
269 0 3 -0.804 6.440761 10.879023 -18.590587 0 0 0
273 0 3 -0.804 8.560761 12.999023000000001 -18.590587 0 0 0
267 0 3 -0.804 12.978000000000002 8.738 -18.590587 0 0 0
1060 0 1 0.731 11.918000000000001 16.158 -19.290587 0 0 0
1059 0 2 -0.123 11.918000000000001 16.158 -20.390587 0 0 0
1058 0 3 -0.804 10.858 15.098 -18.590587 0 0 0
532 0 1 0.731 15.980761000000001 11.939022999999999 -19.290587 0 0 0
531 0 2 -0.123 15.980761000000001 11.939022999999999 -20.390587 0 0 0
529 0 3 -0.804 14.920761 10.879023 -18.590587 0 0 0
12 0 1 0.731 24.460761 11.939022999999999 -19.290587 -1 0 0
11 0 2 -0.123 24.460761 11.939022999999999 -20.390587 -1 0 0
9 0 3 -0.804 23.400761000000003 10.879023 -18.590587 -1 0 0
533 0 3 -0.804 17.040761 12.999023000000001 -18.590587 0 0 0
527 0 3 -0.804 21.458000000000002 8.738 -18.590587 0 0 0
1320 0 1 0.731 20.398 16.158 -19.290587 0 0 0
1319 0 2 -0.123 20.398 16.158 -20.390587 0 0 0
1318 0 3 -0.804 19.338 15.098 -18.590587 0 0 0
793 0 3 -0.804 0.08076099999999897 21.479023 -18.590587 0 0 0
787 0 3 -0.804 4.498 17.218 -18.590587 0 0 0
1580 0 1 0.731 3.438 24.638 -19.290587 0 0 0
1579 0 2 -0.123 3.438 24.638 -20.390587 0 0 0
1578 0 3 -0.804 2.378 23.578000000000003 -18.590587 0 0 0
1052 0 1 0.731 7.500761 20.419023 -19.290587 0 0 0
1051 0 2 -0.123 7.500761 20.419023 -20.390587 0 0 0
1049 0 3 -0.804 6.440761 19.359023 -18.590587 0 0 0
1053 0 3 -0.804 8.560761 21.479023 -18.590587 0 0 0
1047 0 3 -0.804 12.978000000000002 17.218 -18.590587 0 0 0
1840 0 1 0.731 11.918000000000001 24.638 -19.290587 0 0 0
1839 0 2 -0.123 11.918000000000001 24.638 -20.390587 0 0 0
1838 0 3 -0.804 10.858 23.578000000000003 -18.590587 0 0 0
1312 0 1 0.731 15.980761000000001 20.419023 -19.290587 0 0 0
1311 0 2 -0.123 15.980761000000001 20.419023 -20.390587 0 0 0
1309 0 3 -0.804 14.920761 19.359023 -18.590587 0 0 0
792 0 1 0.731 24.460761 20.419023 -19.290587 -1 0 0
791 0 2 -0.123 24.460761 20.419023 -20.390587 -1 0 0
789 0 3 -0.804 23.400761000000003 19.359023 -18.590587 -1 0 0
1313 0 3 -0.804 17.040761 21.479023 -18.590587 0 0 0
1307 0 3 -0.804 21.458000000000002 17.218 -18.590587 0 0 0
2100 0 1 0.731 20.398 24.638 -19.290587 0 0 0
2099 0 2 -0.123 20.398 24.638 -20.390587 0 0 0
2098 0 3 -0.804 19.338 23.578000000000003 -18.590587 0 0 0
21 0 8 -1.05 4.284343 6.676275 -16.738421999999996 0 0 0
14 0 7 1.575 0.08117799999999775 4.5194399999999995 -16.701586999999996 0 0 0
40 0 6 1.05 0.08117799999999775 6.6394400000000005 -14.581587000000003 0 0 0
43 0 6 1.05 2.201177999999998 4.5194399999999995 -14.581587000000003 0 0 0
17 0 6 1.05 2.201177999999998 6.6394400000000005 -16.701586999999996 0 0 0
16 0 8 -1.05 2.1643419999999987 4.556274999999999 -16.664751999999996 0 0 0
42 0 8 -1.05 2.1643419999999987 6.6026050000000005 -14.618421999999995 0 0 0
15 0 9 -0.975 0.1180129999999977 6.6026050000000005 -16.664751999999996 0 0 0
41 0 8 -1.05 0.1180129999999977 4.556274999999999 -14.618421999999995 0 0 0
70 0 7 1.575 1.1411779999999991 5.57944 -11.401586999999996 0 0 0
45 0 7 1.575 3.2611779999999992 7.69944 -13.521587000000004 0 0 0
39 0 8 -1.05 0.04434299999999958 6.676275 -12.498421999999998 0 0 0
1561 0 8 -1.05 0.04434299999999958 2.4362749999999984 -16.738421999999996 0 1 0
1563 0 9 -0.975 2.238012999999998 0.24260500000000107 -16.738421999999996 0 1 0
1588 0 6 1.05 1.1411779999999991 1.3394399999999997 -15.641586999999998 0 1 0
1591 0 8 -1.05 2.238012999999998 2.4362749999999984 -14.544752000000003 0 1 0
1585 0 8 -1.05 0.04434299999999958 0.24260500000000107 -14.544752000000003 0 1 0
1606 0 8 -1.05 4.284343 4.4826049999999995 -14.544752000000003 0 1 0
1562 0 10 0.425 1.5799999999999996 0.9400000000000013 -17.183587 0 1 0
1590 0 6 1.05 2.201177999999998 2.3994399999999985 -12.461586999999994 0 1 0
1586 0 7 1.575 0.08117799999999775 0.27943999999999747 -12.461586999999994 0 1 0
1587 0 8 -1.05 0.1180129999999977 2.3626039999999975 -12.424751999999998 0 1 0
1604 0 8 -1.05 2.238012999999998 4.4826049999999995 -12.498421999999998 0 1 0
1589 0 8 -1.05 2.1643419999999987 0.3162749999999974 -12.424751999999998 0 1 0
1592 0 8 -1.05 4.284343 2.4362749999999984 -12.498421999999998 0 1 0
309 0 7 1.575 5.381178 5.57944 -15.641586999999998 0 0 0
312 0 8 -1.05 6.478013000000001 6.676275 -14.544752000000003 0 0 0
284 0 10 0.425 7.94 7.300000000000001 -17.183587 0 0 0
311 0 7 1.575 6.441178000000001 6.6394400000000005 -12.461586999999994 0 0 0
307 0 7 1.575 4.321178 4.5194399999999995 -12.461586999999994 0 0 0
310 0 8 -1.05 6.404343000000001 4.556274999999999 -12.424751999999998 0 0 0
308 0 8 -1.05 4.358013 6.6026050000000005 -12.424751999999998 0 0 0
1843 0 9 -0.975 6.478013000000001 4.4826049999999995 -16.738421999999996 0 1 0
1856 0 7 1.575 6.441178000000001 0.27943999999999747 -14.581587000000003 0 1 0
1853 0 7 1.575 4.321178 2.3994399999999985 -14.581587000000003 0 1 0
1825 0 6 1.05 4.321178 0.27943999999999747 -16.701586999999996 0 1 0
1830 0 7 1.575 6.441178000000001 2.3994399999999985 -16.701586999999996 0 1 0
1854 0 8 -1.05 4.358013 0.3162749999999974 -14.618421999999995 0 1 0
1826 0 9 -0.975 4.358013 2.3626039999999975 -16.664751999999996 0 1 0
1855 0 8 -1.05 6.404343000000001 2.3626039999999975 -14.618421999999995 0 1 0
1828 0 8 -1.05 6.404343000000001 0.3162749999999974 -16.664751999999996 0 1 0
1842 0 10 0.425 5.642761 5.201023000000003 -17.183587 0 1 0
1824 0 10 0.425 3.522760999999999 3.0810229999999983 -17.183587 0 1 0
1858 0 7 1.575 7.501178 3.459439999999997 -13.521587000000004 0 1 0
1883 0 7 1.575 5.381178 1.3394399999999997 -11.401586999999996 0 1 0
1857 0 8 -1.05 6.478013000000001 0.24260500000000107 -12.498421999999998 0 1 0
281 0 8 -1.05 12.764343 6.676275 -16.738421999999996 0 0 0
274 0 7 1.575 8.561177999999998 4.5194399999999995 -16.701586999999996 0 0 0
300 0 6 1.05 8.561177999999998 6.6394400000000005 -14.581587000000003 0 0 0
303 0 6 1.05 10.681178 4.5194399999999995 -14.581587000000003 0 0 0
277 0 6 1.05 10.681178 6.6394400000000005 -16.701586999999996 0 0 0
276 0 8 -1.05 10.644341999999998 4.556274999999999 -16.664751999999996 0 0 0
302 0 8 -1.05 10.644341999999998 6.6026050000000005 -14.618421999999995 0 0 0
275 0 9 -0.975 8.598012999999998 6.6026050000000005 -16.664751999999996 0 0 0
301 0 8 -1.05 8.598012999999998 4.556274999999999 -14.618421999999995 0 0 0
330 0 7 1.575 9.621178 5.57944 -11.401586999999996 0 0 0
305 0 7 1.575 11.741178 7.69944 -13.521587000000004 0 0 0
299 0 8 -1.05 8.524343 6.676275 -12.498421999999998 0 0 0
1821 0 8 -1.05 8.524343 2.4362749999999984 -16.738421999999996 0 1 0
1823 0 9 -0.975 10.718013 0.24260500000000107 -16.738421999999996 0 1 0
1848 0 6 1.05 9.621178 1.3394399999999997 -15.641586999999998 0 1 0
1851 0 8 -1.05 10.718013 2.4362749999999984 -14.544752000000003 0 1 0
1845 0 8 -1.05 8.524343 0.24260500000000107 -14.544752000000003 0 1 0
1866 0 8 -1.05 12.764343 4.4826049999999995 -14.544752000000003 0 1 0
1822 0 10 0.425 10.06 0.9400000000000013 -17.183587 0 1 0
1850 0 6 1.05 10.681178 2.3994399999999985 -12.461586999999994 0 1 0
1846 0 7 1.575 8.561177999999998 0.27943999999999747 -12.461586999999994 0 1 0
1847 0 8 -1.05 8.598012999999998 2.3626039999999975 -12.424751999999998 0 1 0
1864 0 8 -1.05 10.718013 4.4826049999999995 -12.498421999999998 0 1 0
1849 0 8 -1.05 10.644341999999998 0.3162749999999974 -12.424751999999998 0 1 0
1852 0 8 -1.05 12.764343 2.4362749999999984 -12.498421999999998 0 1 0
569 0 7 1.575 13.861178 5.57944 -15.641586999999998 0 0 0
572 0 8 -1.05 14.958013000000001 6.676275 -14.544752000000003 0 0 0
544 0 10 0.425 16.42 7.300000000000001 -17.183587 0 0 0
571 0 7 1.575 14.921178000000001 6.6394400000000005 -12.461586999999994 0 0 0
567 0 7 1.575 12.801178 4.5194399999999995 -12.461586999999994 0 0 0
570 0 8 -1.05 14.884343000000001 4.556274999999999 -12.424751999999998 0 0 0
568 0 8 -1.05 12.838013 6.6026050000000005 -12.424751999999998 0 0 0
2103 0 9 -0.975 14.958013000000001 4.4826049999999995 -16.738421999999996 0 1 0
2116 0 7 1.575 14.921178000000001 0.27943999999999747 -14.581587000000003 0 1 0
2113 0 7 1.575 12.801178 2.3994399999999985 -14.581587000000003 0 1 0
2085 0 6 1.05 12.801178 0.27943999999999747 -16.701586999999996 0 1 0
2090 0 7 1.575 14.921178000000001 2.3994399999999985 -16.701586999999996 0 1 0
2114 0 8 -1.05 12.838013 0.3162749999999974 -14.618421999999995 0 1 0
2086 0 9 -0.975 12.838013 2.3626039999999975 -16.664751999999996 0 1 0
2115 0 8 -1.05 14.884343000000001 2.3626039999999975 -14.618421999999995 0 1 0
2088 0 8 -1.05 14.884343000000001 0.3162749999999974 -16.664751999999996 0 1 0
2102 0 10 0.425 14.122761 5.201023000000003 -17.183587 0 1 0
2084 0 10 0.425 12.002761 3.0810229999999983 -17.183587 0 1 0
2118 0 7 1.575 15.981178 3.459439999999997 -13.521587000000004 0 1 0
2143 0 7 1.575 13.861178 1.3394399999999997 -11.401586999999996 0 1 0
2117 0 8 -1.05 14.958013000000001 0.24260500000000107 -12.498421999999998 0 1 0
49 0 7 1.575 22.341178 5.57944 -15.641586999999998 -1 0 0
52 0 8 -1.05 23.438013 6.676275 -14.544752000000003 -1 0 0
24 0 10 0.425 24.900000000000002 7.300000000000001 -17.183587 -1 0 0
51 0 7 1.575 23.401178 6.6394400000000005 -12.461586999999994 -1 0 0
47 0 7 1.575 21.281178 4.5194399999999995 -12.461586999999994 -1 0 0
50 0 8 -1.05 23.364343 4.556274999999999 -12.424751999999998 -1 0 0
48 0 8 -1.05 21.318013 6.6026050000000005 -12.424751999999998 -1 0 0
1583 0 9 -0.975 23.438013 4.4826049999999995 -16.738421999999996 -1 1 0
1596 0 7 1.575 23.401178 0.27943999999999747 -14.581587000000003 -1 1 0
1593 0 7 1.575 21.281178 2.3994399999999985 -14.581587000000003 -1 1 0
1565 0 6 1.05 21.281178 0.27943999999999747 -16.701586999999996 -1 1 0
1570 0 7 1.575 23.401178 2.3994399999999985 -16.701586999999996 -1 1 0
1594 0 8 -1.05 21.318013 0.3162749999999974 -14.618421999999995 -1 1 0
1566 0 9 -0.975 21.318013 2.3626039999999975 -16.664751999999996 -1 1 0
1595 0 8 -1.05 23.364343 2.3626039999999975 -14.618421999999995 -1 1 0
1568 0 8 -1.05 23.364343 0.3162749999999974 -16.664751999999996 -1 1 0
1582 0 10 0.425 22.602761 5.201023000000003 -17.183587 -1 1 0
1564 0 10 0.425 20.482761 3.0810229999999983 -17.183587 -1 1 0
1598 0 7 1.575 24.461178 3.459439999999997 -13.521587000000004 -1 1 0
1623 0 7 1.575 22.341178 1.3394399999999997 -11.401586999999996 -1 1 0
1597 0 8 -1.05 23.438013 0.24260500000000107 -12.498421999999998 -1 1 0
541 0 8 -1.05 21.244343 6.676275 -16.738421999999996 0 0 0
534 0 7 1.575 17.041178 4.5194399999999995 -16.701586999999996 0 0 0
560 0 6 1.05 17.041178 6.6394400000000005 -14.581587000000003 0 0 0
563 0 6 1.05 19.161178 4.5194399999999995 -14.581587000000003 0 0 0
537 0 6 1.05 19.161178 6.6394400000000005 -16.701586999999996 0 0 0
536 0 8 -1.05 19.124342 4.556274999999999 -16.664751999999996 0 0 0
562 0 8 -1.05 19.124342 6.6026050000000005 -14.618421999999995 0 0 0
535 0 9 -0.975 17.078013 6.6026050000000005 -16.664751999999996 0 0 0
561 0 8 -1.05 17.078013 4.556274999999999 -14.618421999999995 0 0 0
590 0 7 1.575 18.101178 5.57944 -11.401586999999996 0 0 0
565 0 7 1.575 20.221178000000002 7.69944 -13.521587000000004 0 0 0
559 0 8 -1.05 17.004343 6.676275 -12.498421999999998 0 0 0
2081 0 8 -1.05 17.004343 2.4362749999999984 -16.738421999999996 0 1 0
2083 0 9 -0.975 19.198013 0.24260500000000107 -16.738421999999996 0 1 0
2108 0 6 1.05 18.101178 1.3394399999999997 -15.641586999999998 0 1 0
2111 0 8 -1.05 19.198013 2.4362749999999984 -14.544752000000003 0 1 0
2105 0 8 -1.05 17.004343 0.24260500000000107 -14.544752000000003 0 1 0
2126 0 8 -1.05 21.244343 4.4826049999999995 -14.544752000000003 0 1 0
2082 0 10 0.425 18.54 0.9400000000000013 -17.183587 0 1 0
2110 0 6 1.05 19.161178 2.3994399999999985 -12.461586999999994 0 1 0
2106 0 7 1.575 17.041178 0.27943999999999747 -12.461586999999994 0 1 0
2107 0 8 -1.05 17.078013 2.3626039999999975 -12.424751999999998 0 1 0
2124 0 8 -1.05 19.198013 4.4826049999999995 -12.498421999999998 0 1 0
2109 0 8 -1.05 19.124342 0.3162749999999974 -12.424751999999998 0 1 0
2112 0 8 -1.05 21.244343 2.4362749999999984 -12.498421999999998 0 1 0
1 0 8 -1.05 0.04434299999999958 10.916274999999999 -16.738421999999996 0 0 0
3 0 9 -0.975 2.238012999999998 8.722605 -16.738421999999996 0 0 0
28 0 6 1.05 1.1411779999999991 9.81944 -15.641586999999998 0 0 0
31 0 8 -1.05 2.238012999999998 10.916274999999999 -14.544752000000003 0 0 0
25 0 8 -1.05 0.04434299999999958 8.722605 -14.544752000000003 0 0 0
46 0 8 -1.05 4.284343 12.962605 -14.544752000000003 0 0 0
2 0 10 0.425 1.5799999999999996 9.42 -17.183587 0 0 0
30 0 6 1.05 2.201177999999998 10.879439999999999 -12.461586999999994 0 0 0
26 0 7 1.575 0.08117799999999775 8.759439999999998 -12.461586999999994 0 0 0
27 0 8 -1.05 0.1180129999999977 10.842603999999998 -12.424751999999998 0 0 0
44 0 8 -1.05 2.238012999999998 12.962605 -12.498421999999998 0 0 0
29 0 8 -1.05 2.1643419999999987 8.796274999999998 -12.424751999999998 0 0 0
32 0 8 -1.05 4.284343 10.916274999999999 -12.498421999999998 0 0 0
801 0 8 -1.05 4.284343 15.156275 -16.738421999999996 0 0 0
794 0 7 1.575 0.08117799999999775 12.99944 -16.701586999999996 0 0 0
820 0 6 1.05 0.08117799999999775 15.11944 -14.581587000000003 0 0 0
823 0 6 1.05 2.201177999999998 12.99944 -14.581587000000003 0 0 0
797 0 6 1.05 2.201177999999998 15.11944 -16.701586999999996 0 0 0
796 0 8 -1.05 2.1643419999999987 13.036275 -16.664751999999996 0 0 0
822 0 8 -1.05 2.1643419999999987 15.082605000000001 -14.618421999999995 0 0 0
795 0 9 -0.975 0.1180129999999977 15.082605000000001 -16.664751999999996 0 0 0
821 0 8 -1.05 0.1180129999999977 13.036275 -14.618421999999995 0 0 0
850 0 7 1.575 1.1411779999999991 14.05944 -11.401586999999996 0 0 0
825 0 7 1.575 3.2611779999999992 16.17944 -13.521587000000004 0 0 0
819 0 8 -1.05 0.04434299999999958 15.156275 -12.498421999999998 0 0 0
283 0 9 -0.975 6.478013000000001 12.962605 -16.738421999999996 0 0 0
296 0 7 1.575 6.441178000000001 8.759439999999998 -14.581587000000003 0 0 0
293 0 7 1.575 4.321178 10.879439999999999 -14.581587000000003 0 0 0
265 0 6 1.05 4.321178 8.759439999999998 -16.701586999999996 0 0 0
270 0 7 1.575 6.441178000000001 10.879439999999999 -16.701586999999996 0 0 0
294 0 8 -1.05 4.358013 8.796274999999998 -14.618421999999995 0 0 0
266 0 9 -0.975 4.358013 10.842603999999998 -16.664751999999996 0 0 0
295 0 8 -1.05 6.404343000000001 10.842603999999998 -14.618421999999995 0 0 0
268 0 8 -1.05 6.404343000000001 8.796274999999998 -16.664751999999996 0 0 0
282 0 10 0.425 5.642761 13.681023000000001 -17.183587 0 0 0
264 0 10 0.425 3.522760999999999 11.561023 -17.183587 0 0 0
298 0 7 1.575 7.501178 11.93944 -13.521587000000004 0 0 0
323 0 7 1.575 5.381178 9.81944 -11.401586999999996 0 0 0
297 0 8 -1.05 6.478013000000001 8.722605 -12.498421999999998 0 0 0
1089 0 7 1.575 5.381178 14.05944 -15.641586999999998 0 0 0
1092 0 8 -1.05 6.478013000000001 15.156275 -14.544752000000003 0 0 0
1064 0 10 0.425 7.94 15.780000000000001 -17.183587 0 0 0
1091 0 7 1.575 6.441178000000001 15.11944 -12.461586999999994 0 0 0
1087 0 7 1.575 4.321178 12.99944 -12.461586999999994 0 0 0
1090 0 8 -1.05 6.404343000000001 13.036275 -12.424751999999998 0 0 0
1088 0 8 -1.05 4.358013 15.082605000000001 -12.424751999999998 0 0 0
261 0 8 -1.05 8.524343 10.916274999999999 -16.738421999999996 0 0 0
263 0 9 -0.975 10.718013 8.722605 -16.738421999999996 0 0 0
288 0 6 1.05 9.621178 9.81944 -15.641586999999998 0 0 0
291 0 8 -1.05 10.718013 10.916274999999999 -14.544752000000003 0 0 0
285 0 8 -1.05 8.524343 8.722605 -14.544752000000003 0 0 0
306 0 8 -1.05 12.764343 12.962605 -14.544752000000003 0 0 0
262 0 10 0.425 10.06 9.42 -17.183587 0 0 0
290 0 6 1.05 10.681178 10.879439999999999 -12.461586999999994 0 0 0
286 0 7 1.575 8.561177999999998 8.759439999999998 -12.461586999999994 0 0 0
287 0 8 -1.05 8.598012999999998 10.842603999999998 -12.424751999999998 0 0 0
304 0 8 -1.05 10.718013 12.962605 -12.498421999999998 0 0 0
289 0 8 -1.05 10.644341999999998 8.796274999999998 -12.424751999999998 0 0 0
292 0 8 -1.05 12.764343 10.916274999999999 -12.498421999999998 0 0 0
1061 0 8 -1.05 12.764343 15.156275 -16.738421999999996 0 0 0
1054 0 7 1.575 8.561177999999998 12.99944 -16.701586999999996 0 0 0
1080 0 6 1.05 8.561177999999998 15.11944 -14.581587000000003 0 0 0
1083 0 6 1.05 10.681178 12.99944 -14.581587000000003 0 0 0
1057 0 6 1.05 10.681178 15.11944 -16.701586999999996 0 0 0
1056 0 8 -1.05 10.644341999999998 13.036275 -16.664751999999996 0 0 0
1082 0 8 -1.05 10.644341999999998 15.082605000000001 -14.618421999999995 0 0 0
1055 0 9 -0.975 8.598012999999998 15.082605000000001 -16.664751999999996 0 0 0
1081 0 8 -1.05 8.598012999999998 13.036275 -14.618421999999995 0 0 0
1110 0 7 1.575 9.621178 14.05944 -11.401586999999996 0 0 0
1085 0 7 1.575 11.741178 16.17944 -13.521587000000004 0 0 0
1079 0 8 -1.05 8.524343 15.156275 -12.498421999999998 0 0 0
543 0 9 -0.975 14.958013000000001 12.962605 -16.738421999999996 0 0 0
556 0 7 1.575 14.921178000000001 8.759439999999998 -14.581587000000003 0 0 0
553 0 7 1.575 12.801178 10.879439999999999 -14.581587000000003 0 0 0
525 0 6 1.05 12.801178 8.759439999999998 -16.701586999999996 0 0 0
530 0 7 1.575 14.921178000000001 10.879439999999999 -16.701586999999996 0 0 0
554 0 8 -1.05 12.838013 8.796274999999998 -14.618421999999995 0 0 0
526 0 9 -0.975 12.838013 10.842603999999998 -16.664751999999996 0 0 0
555 0 8 -1.05 14.884343000000001 10.842603999999998 -14.618421999999995 0 0 0
528 0 8 -1.05 14.884343000000001 8.796274999999998 -16.664751999999996 0 0 0
542 0 10 0.425 14.122761 13.681023000000001 -17.183587 0 0 0
524 0 10 0.425 12.002761 11.561023 -17.183587 0 0 0
558 0 7 1.575 15.981178 11.93944 -13.521587000000004 0 0 0
583 0 7 1.575 13.861178 9.81944 -11.401586999999996 0 0 0
557 0 8 -1.05 14.958013000000001 8.722605 -12.498421999999998 0 0 0
1349 0 7 1.575 13.861178 14.05944 -15.641586999999998 0 0 0
1352 0 8 -1.05 14.958013000000001 15.156275 -14.544752000000003 0 0 0
1324 0 10 0.425 16.42 15.780000000000001 -17.183587 0 0 0
1351 0 7 1.575 14.921178000000001 15.11944 -12.461586999999994 0 0 0
1347 0 7 1.575 12.801178 12.99944 -12.461586999999994 0 0 0
1350 0 8 -1.05 14.884343000000001 13.036275 -12.424751999999998 0 0 0
1348 0 8 -1.05 12.838013 15.082605000000001 -12.424751999999998 0 0 0
23 0 9 -0.975 23.438013 12.962605 -16.738421999999996 -1 0 0
36 0 7 1.575 23.401178 8.759439999999998 -14.581587000000003 -1 0 0
33 0 7 1.575 21.281178 10.879439999999999 -14.581587000000003 -1 0 0
5 0 6 1.05 21.281178 8.759439999999998 -16.701586999999996 -1 0 0
10 0 7 1.575 23.401178 10.879439999999999 -16.701586999999996 -1 0 0
34 0 8 -1.05 21.318013 8.796274999999998 -14.618421999999995 -1 0 0
6 0 9 -0.975 21.318013 10.842603999999998 -16.664751999999996 -1 0 0
35 0 8 -1.05 23.364343 10.842603999999998 -14.618421999999995 -1 0 0
8 0 8 -1.05 23.364343 8.796274999999998 -16.664751999999996 -1 0 0
22 0 10 0.425 22.602761 13.681023000000001 -17.183587 -1 0 0
4 0 10 0.425 20.482761 11.561023 -17.183587 -1 0 0
38 0 7 1.575 24.461178 11.93944 -13.521587000000004 -1 0 0
63 0 7 1.575 22.341178 9.81944 -11.401586999999996 -1 0 0
37 0 8 -1.05 23.438013 8.722605 -12.498421999999998 -1 0 0
829 0 7 1.575 22.341178 14.05944 -15.641586999999998 -1 0 0
832 0 8 -1.05 23.438013 15.156275 -14.544752000000003 -1 0 0
804 0 10 0.425 24.900000000000002 15.780000000000001 -17.183587 -1 0 0
831 0 7 1.575 23.401178 15.11944 -12.461586999999994 -1 0 0
827 0 7 1.575 21.281178 12.99944 -12.461586999999994 -1 0 0
830 0 8 -1.05 23.364343 13.036275 -12.424751999999998 -1 0 0
828 0 8 -1.05 21.318013 15.082605000000001 -12.424751999999998 -1 0 0
521 0 8 -1.05 17.004343 10.916274999999999 -16.738421999999996 0 0 0
523 0 9 -0.975 19.198013 8.722605 -16.738421999999996 0 0 0
548 0 6 1.05 18.101178 9.81944 -15.641586999999998 0 0 0
551 0 8 -1.05 19.198013 10.916274999999999 -14.544752000000003 0 0 0
545 0 8 -1.05 17.004343 8.722605 -14.544752000000003 0 0 0
566 0 8 -1.05 21.244343 12.962605 -14.544752000000003 0 0 0
522 0 10 0.425 18.54 9.42 -17.183587 0 0 0
550 0 6 1.05 19.161178 10.879439999999999 -12.461586999999994 0 0 0
546 0 7 1.575 17.041178 8.759439999999998 -12.461586999999994 0 0 0
547 0 8 -1.05 17.078013 10.842603999999998 -12.424751999999998 0 0 0
564 0 8 -1.05 19.198013 12.962605 -12.498421999999998 0 0 0
549 0 8 -1.05 19.124342 8.796274999999998 -12.424751999999998 0 0 0
552 0 8 -1.05 21.244343 10.916274999999999 -12.498421999999998 0 0 0
1321 0 8 -1.05 21.244343 15.156275 -16.738421999999996 0 0 0
1314 0 7 1.575 17.041178 12.99944 -16.701586999999996 0 0 0
1340 0 6 1.05 17.041178 15.11944 -14.581587000000003 0 0 0
1343 0 6 1.05 19.161178 12.99944 -14.581587000000003 0 0 0
1317 0 6 1.05 19.161178 15.11944 -16.701586999999996 0 0 0
1316 0 8 -1.05 19.124342 13.036275 -16.664751999999996 0 0 0
1342 0 8 -1.05 19.124342 15.082605000000001 -14.618421999999995 0 0 0
1315 0 9 -0.975 17.078013 15.082605000000001 -16.664751999999996 0 0 0
1341 0 8 -1.05 17.078013 13.036275 -14.618421999999995 0 0 0
1370 0 7 1.575 18.101178 14.05944 -11.401586999999996 0 0 0
1345 0 7 1.575 20.221178000000002 16.17944 -13.521587000000004 0 0 0
1339 0 8 -1.05 17.004343 15.156275 -12.498421999999998 0 0 0
781 0 8 -1.05 0.04434299999999958 19.396275 -16.738421999999996 0 0 0
783 0 9 -0.975 2.238012999999998 17.202605 -16.738421999999996 0 0 0
808 0 6 1.05 1.1411779999999991 18.29944 -15.641586999999998 0 0 0
811 0 8 -1.05 2.238012999999998 19.396275 -14.544752000000003 0 0 0
805 0 8 -1.05 0.04434299999999958 17.202605 -14.544752000000003 0 0 0
826 0 8 -1.05 4.284343 21.442605 -14.544752000000003 0 0 0
782 0 10 0.425 1.5799999999999996 17.9 -17.183587 0 0 0
810 0 6 1.05 2.201177999999998 19.35944 -12.461586999999994 0 0 0
806 0 7 1.575 0.08117799999999775 17.23944 -12.461586999999994 0 0 0
807 0 8 -1.05 0.1180129999999977 19.322604 -12.424751999999998 0 0 0
824 0 8 -1.05 2.238012999999998 21.442605 -12.498421999999998 0 0 0
809 0 8 -1.05 2.1643419999999987 17.276275 -12.424751999999998 0 0 0
812 0 8 -1.05 4.284343 19.396275 -12.498421999999998 0 0 0
1581 0 8 -1.05 4.284343 23.636275 -16.738421999999996 0 0 0
1574 0 7 1.575 0.08117799999999775 21.47944 -16.701586999999996 0 0 0
1600 0 6 1.05 0.08117799999999775 23.59944 -14.581587000000003 0 0 0
1603 0 6 1.05 2.201177999999998 21.47944 -14.581587000000003 0 0 0
1577 0 6 1.05 2.201177999999998 23.59944 -16.701586999999996 0 0 0
1576 0 8 -1.05 2.1643419999999987 21.516275 -16.664751999999996 0 0 0
1602 0 8 -1.05 2.1643419999999987 23.562605 -14.618421999999995 0 0 0
1575 0 9 -0.975 0.1180129999999977 23.562605 -16.664751999999996 0 0 0
1601 0 8 -1.05 0.1180129999999977 21.516275 -14.618421999999995 0 0 0
1630 0 7 1.575 1.1411779999999991 22.53944 -11.401586999999996 0 0 0
1605 0 7 1.575 3.2611779999999992 24.65944 -13.521587000000004 0 0 0
1599 0 8 -1.05 0.04434299999999958 23.636275 -12.498421999999998 0 0 0
1063 0 9 -0.975 6.478013000000001 21.442605 -16.738421999999996 0 0 0
1076 0 7 1.575 6.441178000000001 17.23944 -14.581587000000003 0 0 0
1073 0 7 1.575 4.321178 19.35944 -14.581587000000003 0 0 0
1045 0 6 1.05 4.321178 17.23944 -16.701586999999996 0 0 0
1050 0 7 1.575 6.441178000000001 19.35944 -16.701586999999996 0 0 0
1074 0 8 -1.05 4.358013 17.276275 -14.618421999999995 0 0 0
1046 0 9 -0.975 4.358013 19.322604 -16.664751999999996 0 0 0
1075 0 8 -1.05 6.404343000000001 19.322604 -14.618421999999995 0 0 0
1048 0 8 -1.05 6.404343000000001 17.276275 -16.664751999999996 0 0 0
1062 0 10 0.425 5.642761 22.161023 -17.183587 0 0 0
1044 0 10 0.425 3.522760999999999 20.041023000000003 -17.183587 0 0 0
1078 0 7 1.575 7.501178 20.41944 -13.521587000000004 0 0 0
1103 0 7 1.575 5.381178 18.29944 -11.401586999999996 0 0 0
1077 0 8 -1.05 6.478013000000001 17.202605 -12.498421999999998 0 0 0
1869 0 7 1.575 5.381178 22.53944 -15.641586999999998 0 0 0
1872 0 8 -1.05 6.478013000000001 23.636275 -14.544752000000003 0 0 0
1844 0 10 0.425 7.94 24.26 -17.183587 0 0 0
1871 0 7 1.575 6.441178000000001 23.59944 -12.461586999999994 0 0 0
1867 0 7 1.575 4.321178 21.47944 -12.461586999999994 0 0 0
1870 0 8 -1.05 6.404343000000001 21.516275 -12.424751999999998 0 0 0
1868 0 8 -1.05 4.358013 23.562605 -12.424751999999998 0 0 0
1041 0 8 -1.05 8.524343 19.396275 -16.738421999999996 0 0 0
1043 0 9 -0.975 10.718013 17.202605 -16.738421999999996 0 0 0
1068 0 6 1.05 9.621178 18.29944 -15.641586999999998 0 0 0
1071 0 8 -1.05 10.718013 19.396275 -14.544752000000003 0 0 0
1065 0 8 -1.05 8.524343 17.202605 -14.544752000000003 0 0 0
1086 0 8 -1.05 12.764343 21.442605 -14.544752000000003 0 0 0
1042 0 10 0.425 10.06 17.9 -17.183587 0 0 0
1070 0 6 1.05 10.681178 19.35944 -12.461586999999994 0 0 0
1066 0 7 1.575 8.561177999999998 17.23944 -12.461586999999994 0 0 0
1067 0 8 -1.05 8.598012999999998 19.322604 -12.424751999999998 0 0 0
1084 0 8 -1.05 10.718013 21.442605 -12.498421999999998 0 0 0
1069 0 8 -1.05 10.644341999999998 17.276275 -12.424751999999998 0 0 0
1072 0 8 -1.05 12.764343 19.396275 -12.498421999999998 0 0 0
1841 0 8 -1.05 12.764343 23.636275 -16.738421999999996 0 0 0
1834 0 7 1.575 8.561177999999998 21.47944 -16.701586999999996 0 0 0
1860 0 6 1.05 8.561177999999998 23.59944 -14.581587000000003 0 0 0
1863 0 6 1.05 10.681178 21.47944 -14.581587000000003 0 0 0
1837 0 6 1.05 10.681178 23.59944 -16.701586999999996 0 0 0
1836 0 8 -1.05 10.644341999999998 21.516275 -16.664751999999996 0 0 0
1862 0 8 -1.05 10.644341999999998 23.562605 -14.618421999999995 0 0 0
1835 0 9 -0.975 8.598012999999998 23.562605 -16.664751999999996 0 0 0
1861 0 8 -1.05 8.598012999999998 21.516275 -14.618421999999995 0 0 0
1890 0 7 1.575 9.621178 22.53944 -11.401586999999996 0 0 0
1865 0 7 1.575 11.741178 24.65944 -13.521587000000004 0 0 0
1859 0 8 -1.05 8.524343 23.636275 -12.498421999999998 0 0 0
1323 0 9 -0.975 14.958013000000001 21.442605 -16.738421999999996 0 0 0
1336 0 7 1.575 14.921178000000001 17.23944 -14.581587000000003 0 0 0
1333 0 7 1.575 12.801178 19.35944 -14.581587000000003 0 0 0
1305 0 6 1.05 12.801178 17.23944 -16.701586999999996 0 0 0
1310 0 7 1.575 14.921178000000001 19.35944 -16.701586999999996 0 0 0
1334 0 8 -1.05 12.838013 17.276275 -14.618421999999995 0 0 0
1306 0 9 -0.975 12.838013 19.322604 -16.664751999999996 0 0 0
1335 0 8 -1.05 14.884343000000001 19.322604 -14.618421999999995 0 0 0
1308 0 8 -1.05 14.884343000000001 17.276275 -16.664751999999996 0 0 0
1322 0 10 0.425 14.122761 22.161023 -17.183587 0 0 0
1304 0 10 0.425 12.002761 20.041023000000003 -17.183587 0 0 0
1338 0 7 1.575 15.981178 20.41944 -13.521587000000004 0 0 0
1363 0 7 1.575 13.861178 18.29944 -11.401586999999996 0 0 0
1337 0 8 -1.05 14.958013000000001 17.202605 -12.498421999999998 0 0 0
2129 0 7 1.575 13.861178 22.53944 -15.641586999999998 0 0 0
2132 0 8 -1.05 14.958013000000001 23.636275 -14.544752000000003 0 0 0
2104 0 10 0.425 16.42 24.26 -17.183587 0 0 0
2131 0 7 1.575 14.921178000000001 23.59944 -12.461586999999994 0 0 0
2127 0 7 1.575 12.801178 21.47944 -12.461586999999994 0 0 0
2130 0 8 -1.05 14.884343000000001 21.516275 -12.424751999999998 0 0 0
2128 0 8 -1.05 12.838013 23.562605 -12.424751999999998 0 0 0
803 0 9 -0.975 23.438013 21.442605 -16.738421999999996 -1 0 0
816 0 7 1.575 23.401178 17.23944 -14.581587000000003 -1 0 0
813 0 7 1.575 21.281178 19.35944 -14.581587000000003 -1 0 0
785 0 6 1.05 21.281178 17.23944 -16.701586999999996 -1 0 0
790 0 7 1.575 23.401178 19.35944 -16.701586999999996 -1 0 0