LAMMPS data file via write_data, version 17 Feb 2022, timestep = 319

4311 atoms
10 atom types
36 bonds
6 bond types
54 angles
6 angle types
0 dihedrals
2 dihedral types
9 impropers
2 improper types

0 25.44 xlo xhi
0 25.44 ylo yhi
-64.778423 32.908 zlo zhi

Masses

1 12.011
2 1.008
3 15.9994
4 15.9994
5 1.008
6 55.845
7 55.845
8 15.9994
9 15.9994
10 1.008

Pair Coeffs # lj/cut/coul/long

1 0.0988 3.31521
2 0.0161 2.4473
3 0.1463 3.04812
4 0.093 3.24287
5 0.0047 0.537925
6 9.0298e-07 4.9062
7 9.0298e-07 4.9062
8 0.1554 3.16554
9 0.1554 3.16554
10 0 0

Bond Coeffs # harmonic

1 361.8 1.105
2 652.57 1.218
3 383.13 1.351
4 563.51 0.973
5 554.135 1
6 0 2.08

Angle Coeffs # harmonic

1 51.617 106.55
2 65.93 123.65
3 65.262 109.49
4 115.745 122.1
5 118.817 130.25
6 30 109.47

Dihedral Coeffs # fourier

1 1 2.3 2 180
2 2 2.3 2 180 1.9 1 0

Improper Coeffs # cvff

1 10.5 -1 2
2 10.5 -1 2

Atoms # full

71 0 7 1.575 3.4732264577361733 4.450718284075531 -52.076507378867674 0 0 0
78 0 6 1.05 7.254118121256328 5.608167641318366 -53.86935106678595 0 0 0
3 0 6 1.05 0.29261542518395695 3.358151701303539 -53.2954388131126 0 0 0
74 0 6 1.05 4.69154565365781 7.455741823839523 -53.1885078992819 0 0 0
7 0 6 1.05 2.359362084403455 1.3084796597226336 -53.25271964616191 0 0 0
6 0 8 -1.05 2.2688839554644535 3.2818416533723846 -52.98431986695072 0 0 0
75 0 8 -1.05 4.916279609478955 5.719504022292278 -51.967177787777764 0 0 0
70 0 8 -1.05 2.6756304290664352 7.431596609709845 -52.900261152057084 0 0 0
4 0 8 -1.05 0.22797944184985094 1.0978495762986926 -53.02140199211045 0 0 0
73 0 8 -1.05 4.30665977774168 7.741914061924145 -50.242106839061414 0 0 0
19 0 8 -1.05 7.032833336615087 3.6281891663612926 -53.34815569439851 0 0 0
79 0 8 -1.05 6.8462389375615045 4.8015169129550594 -50.15085444860914 0 0 0
77 0 8 -1.05 6.708194507659884 7.394825573605515 -53.255645589894804 0 0 0
5 0 7 1.575 0.2742844561530016 1.4990619371525236 -50.96208769757728 0 0 0
76 0 7 1.575 5.634267894767819 6.328323743561095 -50.193567342031514 0 0 0
11 0 6 1.05 4.660287558768076 1.2207491232508008 -51.49495951815145 0 0 0
68 0 6 1.05 2.4575637996010475 5.329847562904665 -48.905118604847104 0 0 0
63 0 6 1.05 0.03998423755272485 7.589155335817629 -49.09368446612317 0 0 0
62 0 7 1.575 0.335389876105451 5.412179228686852 -51.24791109960834 0 0 0
12 0 7 1.575 4.514689674135938 3.3362496798360803 -49.117784227181616 0 0 0
17 0 6 1.05 6.884492945977486 1.1653263912230645 -49.33915199876927 0 0 0
18 0 7 1.575 6.678261704720208 3.3484073866851745 -51.495571280462116 0 0 0
69 0 7 1.575 2.3619868777838615 7.51408465282558 -51.02085664610694 0 0 0
15 0 8 -1.05 6.716980804321876 1.349265330770581 -51.29181173568678 0 0 0
64 0 8 -1.05 0.14146845854153942 7.658016798868739 -46.91586034227887 0 0 0
65 0 8 -1.05 0.2664856538081618 7.450137328867653 -51.13587730206842 0 0 0
16 0 8 -1.05 6.339971419858474 2.868905920241675 -48.357135300890526 0 0 0
14 0 8 -1.05 4.681225908438915 3.191622730239555 -51.02604359758701 0 0 0
67 0 8 -1.05 2.057526752783599 7.344657317078497 -48.90663644222605 0 0 0
13 0 8 -1.05 4.347639026840527 1.3180886716906712 -48.709674423964344 0 0 0
66 0 8 -1.05 2.237429100125063 5.447546841515071 -50.891853327872305 0 0 0
8 0 8 -1.05 2.2414714118195955 1.0296519236467685 -50.88239022993163 0 0 0
10 0 8 -1.05 4.290349259867367 0.9469473983341686 -53.40912959108614 0 0 0
61 0 8 -1.05 25.40286596889162 5.306158713414591 -53.104845553954384 -1 0 0
2 0 8 -1.05 25.357318563983508 3.4443324074478174 -51.111496535761034 -1 0 0
20 0 7 1.575 7.86885731974629 0.13665319004142407 -52.4399147456295 0 0 0
81 0 8 -1.05 9.055977293832056 5.245095590545262 -53.14544402985289 0 0 0
22 0 8 -1.05 8.738343282030904 3.2662794064100082 -51.19618258630483 0 0 0
91 0 7 1.575 12.06580628938148 4.421529763556363 -52.21894938728427 0 0 0
23 0 7 1.575 9.01401861456841 3.3138801400778153 -53.22495253571815 0 0 0
27 0 7 1.575 11.108436902905314 1.218286480624078 -53.174200842250436 0 0 0
26 0 8 -1.05 10.972321052670075 3.165503077391564 -53.143817354055976 0 0 0
90 0 8 -1.05 11.076880247856117 7.769749220346769 -53.19214324909824 0 0 0
24 0 8 -1.05 9.100008226725679 1.3356979299831269 -53.28170652166803 0 0 0
25 0 7 1.575 9.970857210525338 2.2948400961074356 -50.1046986885408 0 0 0
88 0 7 1.575 10.995128271779487 5.429154122100297 -48.92167678578544 0 0 0
83 0 7 1.575 8.781570911350371 7.517225247629136 -48.9865593900532 0 0 0
82 0 6 1.05 8.939999874438126 5.447063095109142 -51.164234602305584 0 0 0
89 0 6 1.05 10.870386543809666 7.509869786264937 -51.20574165624288 0 0 0
84 0 8 -1.05 9.02217721271763 5.5222023483375295 -48.77488972916929 0 0 0
85 0 8 -1.05 8.743775613454845 7.515695487743821 -50.94087213535198 0 0 0
87 0 8 -1.05 10.821516543624757 7.4434448591859645 -48.86977142613734 0 0 0
86 0 8 -1.05 10.995941754912542 5.403458254238542 -50.88184763906154 0 0 0
28 0 8 -1.05 11.088174110622411 1.1596922961628071 -51.13472481521344 0 0 0
98 0 7 1.575 15.195144054590685 5.527302402406498 -53.141332898320414 0 0 0
94 0 7 1.575 13.032268441899392 7.61453573300823 -53.13339002932254 0 0 0
95 0 8 -1.05 13.227580004853277 5.622967672984993 -53.12684142254797 0 0 0
93 0 8 -1.05 13.012989347459564 7.628512880294603 -51.094185609751406 0 0 0
39 0 8 -1.05 15.485808138606675 3.5938523651921845 -53.2244216525414 0 0 0
99 0 8 -1.05 15.323891818797795 5.483083444057704 -51.075911717625914 0 0 0
97 0 8 -1.05 15.02048339602443 7.50153355870814 -53.19635353105634 0 0 0
96 0 7 1.575 14.094774777992706 6.500839867281729 -50.01900479010741 0 0 0
31 0 6 1.05 13.201242409704946 1.3026374695025567 -51.16126002061495 0 0 0
32 0 7 1.575 13.125077121664606 3.343885874465408 -48.976255394176526 0 0 0
37 0 7 1.575 15.273030534983276 1.2215060445021118 -48.94683331978033 0 0 0
38 0 6 1.05 15.313713340211784 3.329638885315219 -51.22742655406293 0 0 0
35 0 8 -1.05 15.408924705632023 1.2156231377849163 -50.89893010704023 0 0 0
36 0 8 -1.05 15.151309366232638 3.2112160426272807 -48.86233728037272 0 0 0
34 0 8 -1.05 13.18632181802052 3.3775117572249336 -50.937774735225545 0 0 0
33 0 8 -1.05 13.253992111920653 1.3000880711334055 -48.92319326530612 0 0 0
30 0 8 -1.05 13.096450489361237 1.122249802896651 -53.17247010855878 0 0 0
40 0 7 1.575 16.382534567211714 0.4922811972419453 -52.42104233924467 0 0 0
60 0 7 1.575 0.3272310387912709 24.42319033523823 -53.096042558634025 1 -1 0
50 0 8 -1.05 21.781889869646747 0.9841481198601866 -53.86781317300373 0 0 0
48 0 8 -1.05 19.3287754660753 0.993663153589882 -50.479987190513604 0 0 0
106 0 8 -1.05 19.38774313431695 5.690062470123288 -51.07053819280252 0 0 0
53 0 8 -1.05 21.191807313680815 1.362534339959794 -48.37862586744164 0 0 0
107 0 8 -1.05 19.32405908127866 7.541071945341939 -48.490200891160896 0 0 0
54 0 8 -1.05 20.955515282216478 3.148414227377426 -50.98342434870753 0 0 0
56 0 8 -1.05 23.248861582889393 3.256518430555032 -49.218204423233196 0 0 0
105 0 8 -1.05 17.433177333050377 7.656413658419233 -51.06979539420351 0 0 0
104 0 8 -1.05 17.322449243050045 5.6320578394380005 -49.063462796931056 0 0 0
55 0 8 -1.05 23.7220047959887 1.320434908728981 -51.20724588372677 0 0 0
109 0 7 1.575 19.417082639117687 7.639572737506834 -51.38432518960775 0 0 0
58 0 7 1.575 23.32080746165844 3.2714519088974305 -51.214085737454624 0 0 0
57 0 6 1.05 22.531267100238743 0.6847535705656335 -49.72801499017496 0 0 0
52 0 6 1.05 21.284282771784387 3.382278848548889 -48.997917409336665 0 0 0
102 0 7 1.575 17.31845354030138 5.578752254278497 -51.109784181620455 0 0 0
103 0 6 1.05 17.244828126689452 7.703678069516661 -49.00049734222897 0 0 0
108 0 6 1.05 19.348631668114685 5.476384463016159 -49.01099448735887 0 0 0
51 0 7 1.575 23.57222989334108 1.1039873108264266 -53.19232092359028 0 0 0
116 0 7 1.575 22.772522148556746 6.359035435437888 -50.10106283911466 0 0 0
45 0 7 1.575 19.03710246205878 2.5526282353705945 -51.57166277641177 0 0 0
117 0 8 -1.05 23.289963463253468 7.432271127135586 -53.20830741140662 0 0 0
119 0 8 -1.05 24.65241529980433 5.612423317637632 -49.52458957250709 0 0 0
59 0 8 -1.05 23.616422871710338 3.1153784101023203 -53.20236431247288 0 0 0
113 0 8 -1.05 21.26945573596401 7.603509206469281 -50.579490354438626 0 0 0
44 0 8 -1.05 17.923125801321216 1.5595028341857335 -52.95339086721165 0 0 0
110 0 8 -1.05 19.860153937966018 7.854873592595573 -53.24796750799513 0 0 0
115 0 8 -1.05 22.57808327268059 5.130350804488679 -51.60989720028767 0 0 0
46 0 8 -1.05 19.617648859775645 3.5492330956141793 -53.2101921158468 0 0 0
47 0 6 1.05 19.80225084777492 1.3594669079818515 -54.01297050899205 0 0 0
114 0 6 1.05 21.705994131777317 8.274818874286463 -54.031240788270104 0 0 0
43 0 6 1.05 17.477325162009887 3.647650146050526 -53.4436025558632 0 0 0
118 0 6 1.05 23.514700750605535 5.444567804674554 -53.489439542285844 0 0 0
111 0 7 1.575 20.693500262554245 4.722266799104422 -52.11661195181987 0 0 0
42 0 8 -1.05 17.494158492027374 3.604426196227605 -51.13269375814393 0 0 0
101 0 8 -1.05 17.187786219010427 5.623519000879251 -53.06307566647076 0 0 0
140 0 7 1.575 7.704136086286207 8.645376953383728 -52.22780378768046 0 0 0
128 0 8 -1.05 2.513488892001728 9.498147299355507 -50.83461253159256 0 0 0
130 0 8 -1.05 4.456150921845116 9.42219700605965 -52.89174954904565 0 0 0
123 0 7 1.575 0.3662471037408237 11.756263761116221 -53.14439559746144 0 0 0
127 0 6 1.05 2.4514024171670026 9.539625724146239 -53.23312400708418 0 0 0
126 0 8 -1.05 2.3092729260266713 11.615344588046385 -53.034700349718506 0 0 0
124 0 8 -1.05 0.3757746024649395 9.770250833172268 -53.18346125114611 0 0 0
139 0 8 -1.05 6.831298028609408 12.047308108096077 -53.11024789051508 0 0 0
125 0 7 1.575 1.3707011434275527 10.791366725610239 -50.07801409011582 0 0 0
131 0 7 1.575 4.557020413973442 9.711635716914197 -51.0220476108703 0 0 0
132 0 7 1.575 4.592204659353053 11.874063670460691 -48.95957718246436 0 0 0
137 0 6 1.05 6.69190955281793 9.653137647869292 -48.93134862668322 0 0 0
138 0 6 1.05 6.655161772208339 11.769982679866416 -51.124401460152896 0 0 0
135 0 8 -1.05 6.565194644185412 9.65762840745697 -50.951938195152344 0 0 0
136 0 8 -1.05 6.560953967611719 11.818332698086095 -48.78133614804182 0 0 0
134 0 8 -1.05 4.530176464517496 11.75373166170631 -50.91323712327815 0 0 0
133 0 8 -1.05 4.610225914812587 9.932672503173432 -48.82947564702415 0 0 0
122 0 8 -1.05 0.1940165058434487 11.85347792925274 -51.08683799539783 0 0 0
191 0 7 1.575 3.5648414947959197 12.823224001752441 -52.309720036746135 0 0 0
198 0 7 1.575 6.692923885011827 14.010116032495233 -53.04240389887702 0 0 0
194 0 6 1.05 4.634974262033885 16.135644181515442 -53.64263120291277 0 0 0
195 0 8 -1.05 4.725308515132021 14.132880368817876 -53.04613582777451 0 0 0
190 0 8 -1.05 2.5955362305925984 16.33228726540043 -53.27590754856813 0 0 0
193 0 8 -1.05 4.063990181936379 16.15596705795819 -50.17835620957031 0 0 0
199 0 8 -1.05 6.7102883713339905 13.930033911004124 -50.992926813830024 0 0 0
197 0 8 -1.05 6.618051857425512 15.969022419127207 -53.11329582025974 0 0 0
196 0 7 1.575 5.561494014597128 14.979348813933639 -49.936368207919394 0 0 0
188 0 6 1.05 2.4679709170332185 13.954297981983654 -49.18282071430824 0 0 0
183 0 7 1.575 0.28330189425275126 16.035874379248586 -48.945921470128965 0 0 0
182 0 6 1.05 0.3725976760236236 13.920278853408762 -51.1961729365272 0 0 0
189 0 7 1.575 2.4510400317436254 16.005088093970716 -51.41810258564769 0 0 0
184 0 8 -1.05 0.38641156703546015 14.05281319692831 -48.92451519178639 0 0 0
185 0 8 -1.05 0.5159966744773842 16.09169709486331 -50.90229916336229 0 0 0
187 0 8 -1.05 2.217327935661548 15.768598028471214 -48.15862842088703 0 0 0
186 0 8 -1.05 2.499092761978326 14.056025867479192 -51.1476151402528 0 0 0
181 0 8 -1.05 0.25376343164730875 13.752156528832273 -53.186266862317886 0 0 0
142 0 8 -1.05 8.75067126450319 11.904533977671832 -51.01473197103753 0 0 0
148 0 8 -1.05 10.96771689850018 9.644543292447354 -51.071820156954644 0 0 0
143 0 7 1.575 8.78732415193561 11.856417030700117 -53.06434832758342 0 0 0
147 0 7 1.575 10.901697715393208 9.727004140687255 -53.09803830703415 0 0 0
146 0 8 -1.05 10.772406292365766 11.724192143481474 -53.11757156652562 0 0 0
144 0 8 -1.05 8.915121478308546 9.875786880853074 -53.0503681815898 0 0 0
145 0 7 1.575 9.832770043728097 10.718671335770106 -50.00987468139583 0 0 0
201 0 8 -1.05 8.677407849567958 13.833054589054738 -53.08545318483813 0 0 0
211 0 7 1.575 12.000961560547411 12.948898170784329 -52.34104834991201 0 0 0
210 0 8 -1.05 11.239449275969696 16.344507180447515 -53.287497285952526 0 0 0
208 0 7 1.575 10.925362046081263 13.938248415783253 -49.11642975985775 0 0 0
203 0 6 1.05 8.717513725704006 16.077185379179806 -49.02236028251841 0 0 0
202 0 6 1.05 8.773057082888274 13.992317653534279 -51.09181667347762 0 0 0
209 0 7 1.575 10.801071379947285 16.099697694150077 -51.465814702432205 0 0 0
204 0 8 -1.05 8.967200592901058 14.018103046271104 -48.91210375832736 0 0 0
205 0 8 -1.05 8.890609561727784 16.141210058871067 -51.03471859555008 0 0 0
207 0 8 -1.05 10.882072356849497 15.866218116957587 -48.572658673719296 0 0 0
206 0 8 -1.05 10.9813836222721 14.161568684416038 -51.03582821453699 0 0 0
160 0 7 1.575 16.19946277864008 8.694358471139148 -52.31276863069209 0 0 0
150 0 8 -1.05 12.873652829811993 9.589054736199213 -53.169106816851205 0 0 0
159 0 8 -1.05 15.271834243964257 11.990045712260002 -53.066849090822195 0 0 0
151 0 6 1.05 13.053946174351546 9.717772554074353 -51.16831972460176 0 0 0
152 0 7 1.575 12.947821043495582 11.784709783187656 -49.033296241409154 0 0 0
157 0 6 1.05 15.068298802138857 9.632094980851122 -49.06361182430414 0 0 0
158 0 7 1.575 15.108993719052712 11.821449400692009 -51.16179659178328 0 0 0
155 0 8 -1.05 15.17456086238749 9.804588113086483 -51.0751048210784 0 0 0
156 0 8 -1.05 14.916681344802804 11.694598420527493 -49.05456195992562 0 0 0
154 0 8 -1.05 13.060258539042497 11.939400407044113 -50.995184158085316 0 0 0
153 0 8 -1.05 12.980082053388571 9.81994889438038 -48.914969232072615 0 0 0
218 0 6 1.05 15.158911801345885 14.026629631581352 -53.45532198458334 0 0 0
214 0 7 1.575 13.205560483715969 16.223292474038885 -53.160879133477444 0 0 0
215 0 8 -1.05 13.19801420714405 14.265807231306873 -53.02437017039313 0 0 0
213 0 8 -1.05 12.902325233310561 16.276312571831607 -51.08164887088509 0 0 0
219 0 8 -1.05 15.378311148825011 13.802414750751433 -50.773890236823426 0 0 0
217 0 8 -1.05 15.155378378989655 16.14586621086168 -52.94700960793019 0 0 0
216 0 7 1.575 14.028038638859277 15.00175369159365 -50.21367971524873 0 0 0
173 0 8 -1.05 21.56357304816114 9.923529852026826 -48.907634494295266 0 0 0
174 0 8 -1.05 21.439802548889627 11.897203934800539 -50.98148117351428 0 0 0
176 0 8 -1.05 23.427025793032783 11.781485023316542 -48.87727182044574 0 0 0
175 0 8 -1.05 23.559177497002004 9.639989812070628 -51.0292226252179 0 0 0
178 0 6 1.05 23.54555481315976 11.811960751136317 -51.3265071355469 0 0 0
177 0 7 1.575 23.582703595817577 9.8142217826122 -49.08618460482629 0 0 0
172 0 7 1.575 21.41753997281393 11.900044226834586 -49.04121673007878 0 0 0
171 0 6 1.05 21.540126707655116 9.849530665121527 -51.33303847728541 0 0 0
165 0 7 1.575 18.330781123620955 10.734575696055884 -50.0726745884143 0 0 0
179 0 8 -1.05 23.855855536308024 11.970792965842291 -53.28784271262285 0 0 0
164 0 8 -1.05 17.42467164094759 9.831790500073296 -53.24277419454835 0 0 0
166 0 8 -1.05 19.161251318803856 11.777203388737355 -53.181300626214146 0 0 0
167 0 7 1.575 19.38428908565452 9.839824596176523 -53.2199536560853 0 0 0
163 0 7 1.575 17.206141025247028 11.83317793998005 -53.25464879920222 0 0 0
170 0 8 -1.05 21.302178666252907 10.033564231615124 -53.30409356037384 0 0 0
168 0 8 -1.05 19.435364371559444 9.61216871077003 -51.16960030789967 0 0 0
162 0 8 -1.05 17.19070519566693 11.859041465122989 -51.1167201175722 0 0 0
180 0 7 1.575 24.605350297839426 8.581048879969881 -52.35631946716187 0 0 0
226 0 8 -1.05 19.373622004643384 14.024534949143277 -51.1396020936633 0 0 0
227 0 8 -1.05 19.194140321935915 15.929879764220312 -48.84978273533703 0 0 0
225 0 8 -1.05 17.469955740703377 16.097509272657145 -51.081090866325354 0 0 0
224 0 8 -1.05 17.320889293396664 14.135711100716055 -48.387256519376784 0 0 0
229 0 7 1.575 19.491348934048187 15.987009120005391 -51.33854389246182 0 0 0
222 0 6 1.05 17.321298399967176 14.004988216384191 -51.52692763683228 0 0 0
223 0 7 1.575 17.235428273969188 16.02214014849833 -49.15315055836198 0 0 0
228 0 6 1.05 19.3616039565727 13.924195643003557 -49.161452796767655 0 0 0
236 0 7 1.575 22.59118172599161 14.964195743609636 -50.05093281885247 0 0 0
237 0 8 -1.05 23.66752234406485 15.921495821488225 -53.16432248306936 0 0 0
239 0 8 -1.05 23.73114750233071 13.89968692462853 -51.1147826834962 0 0 0
233 0 8 -1.05 21.458495285267166 16.13337534850552 -51.02652182731219 0 0 0
230 0 8 -1.05 19.568984009506696 16.05032358510989 -53.235134104673236 0 0 0
235 0 8 -1.05 21.773552583659878 14.012875169758917 -53.22816291891598 0 0 0
234 0 6 1.05 21.63710777857111 16.0431489397956 -53.350377458200995 0 0 0
238 0 7 1.575 23.729113863246592 13.948995745940286 -53.194406915898625 0 0 0
231 0 7 1.575 20.477070214319365 12.914967773550346 -52.40171877094281 0 0 0
221 0 8 -1.05 17.137646200805502 13.767424667920785 -53.46749632810609 0 0 0
260 0 7 1.575 7.731818187382387 17.229411765200783 -52.264739391922284 0 0 0
248 0 8 -1.05 2.4718954735463208 18.079432627810473 -51.08753509200056 0 0 0
250 0 8 -1.05 4.448259345200278 18.108027443664888 -53.04469482164537 0 0 0
311 0 7 1.575 3.5416842591347626 21.36684337379943 -52.23314549549398 0 0 0
318 0 6 1.05 6.673395927184934 22.421856731988402 -53.337683833237946 0 0 0
243 0 7 1.575 0.36513740602427897 20.331883544426027 -53.10530386169744 0 0 0
314 0 7 1.575 4.550474366622276 24.501824147364275 -53.25885595097058 0 0 0
247 0 7 1.575 2.5126875344704063 18.27988224075708 -53.17065061388278 0 0 0
246 0 8 -1.05 2.314634598281605 20.248797127830844 -53.15728962223524 0 0 0
315 0 8 -1.05 4.5585584736122815 22.591670269518477 -53.24327629034269 0 0 0
310 0 8 -1.05 2.2873101317032654 24.627923094009088 -53.0337753470716 0 0 0
244 0 8 -1.05 0.5181116853570624 18.359158464704144 -53.07377530033265 0 0 0
313 0 8 -1.05 4.396667559609507 24.630099058621774 -51.14044874307482 0 0 0
259 0 8 -1.05 6.8935207038368285 20.373056936057743 -53.092263562363286 0 0 0
319 0 8 -1.05 6.711660528384583 22.35640115739717 -50.9979741572607 0 0 0
317 0 8 -1.05 6.492839093461794 24.48277445135817 -53.15198126748672 0 0 0
245 0 7 1.575 1.385067669404199 19.194123889201332 -49.975673672795814 0 0 0
316 0 7 1.575 5.59431901647487 23.570313092170732 -50.070389404629125 0 0 0
251 0 6 1.05 4.601142102796306 18.284313774711954 -51.072845711764906 0 0 0
308 0 6 1.05 2.474120678527994 22.390434942626264 -48.97232759701832 0 0 0
303 0 6 1.05 0.04849842516644228 24.506142838937794 -49.052298415754706 0 0 0
302 0 7 1.575 0.291353962830751 22.357774972440293 -50.9964215877558 0 0 0
252 0 6 1.05 4.560365800746147 20.399428121800153 -48.97009193821227 0 0 0
257 0 7 1.575 6.724833908175753 18.237071239177883 -48.94064457930136 0 0 0
258 0 7 1.575 6.63715139058073 20.367460088218962 -51.17818190906901 0 0 0
309 0 7 1.575 2.451642829533964 24.485664743826742 -51.05077041597686 0 0 0
255 0 8 -1.05 6.731790010298058 18.28403184616951 -50.9077134165286 0 0 0
304 0 8 -1.05 0.34354845434805925 22.468436208941146 -49.0001849041308 0 0 0
305 0 8 -1.05 0.4240710756625548 24.41800204622255 -51.068037888513736 0 0 0
256 0 8 -1.05 6.722325774298588 20.234894174720612 -48.95842600427958 0 0 0
254 0 8 -1.05 4.647216605167668 20.368322954758973 -50.993570942680435 0 0 0
307 0 8 -1.05 2.2412108225683993 24.58722175529987 -48.78094329821342 0 0 0
253 0 8 -1.05 4.771460946961903 18.384383733183945 -48.82578254573961 0 0 0
306 0 8 -1.05 2.3839397245033473 22.49688416692135 -51.00874419491306 0 0 0
301 0 8 -1.05 0.2504081750090468 22.44487249036335 -52.989212859884695 0 0 0
242 0 8 -1.05 0.3148845076853714 20.38696888234879 -51.03611667946683 0 0 0
326 0 8 -1.05 11.018535531376969 22.444212215576666 -50.95940562410351 0 0 0
327 0 8 -1.05 10.891602419008073 24.442421157035902 -48.87686766743243 0 0 0
325 0 8 -1.05 8.852307550869774 24.606581353705756 -51.01977603671423 0 0 0
324 0 8 -1.05 8.979883681857812 22.554725034040416 -48.90870891934571 0 0 0
329 0 6 1.05 10.974355683803687 24.52332764465712 -51.277193748237984 0 0 0
322 0 6 1.05 8.805060427590748 22.55519107972467 -51.321218941997884 0 0 0
323 0 7 1.575 8.893636189706204 24.574269731196914 -49.070888622752584 0 0 0
328 0 7 1.575 10.966857038189442 22.444337305000808 -49.01161089996352 0 0 0
265 0 7 1.575 9.736915122797436 19.32743010447349 -50.08369147644597 0 0 0
264 0 8 -1.05 9.040269971295478 18.37651408530972 -53.02159435293355 0 0 0
330 0 8 -1.05 11.293293971454947 24.711122582273514 -53.25818817947457 0 0 0
266 0 8 -1.05 10.855675052060032 20.266837584445394 -53.10463784121054 0 0 0
267 0 6 1.05 11.027567688028844 18.322569522418558 -53.733301325012164 0 0 0
263 0 7 1.575 8.86733891543803 20.344927383832193 -53.15341913574479 0 0 0
321 0 8 -1.05 8.723813224955238 22.276416920218693 -53.285878810764856 0 0 0
262 0 8 -1.05 8.672031282102841 20.474331024692763 -51.09752410947333 0 0 0
268 0 8 -1.05 10.982150326348782 17.93970105232529 -50.453063482388025 0 0 0
331 0 7 1.575 12.053095806652996 21.515453358003256 -52.35548221684738 0 0 0
280 0 7 1.575 16.650313757345618 17.24978809255304 -52.51229841993765 0 0 0
273 0 8 -1.05 13.309884013492905 18.42657801930327 -48.99395680460598 0 0 0
274 0 8 -1.05 13.177298699326027 20.39681399481879 -51.022012494488244 0 0 0
276 0 8 -1.05 13.058169462368301 20.367348669819382 -46.93663340525127 0 0 0
275 0 8 -1.05 16.254337447497722 18.726495202986943 -51.10943895964964 0 0 0
278 0 7 1.575 15.179536711626405 20.419387415516656 -51.247469145270486 0 0 0
277 0 6 1.05 15.305945502468118 18.1858170370064 -49.358337598377 0 0 0
272 0 7 1.575 13.104382438162318 20.38756050861782 -49.03874123535837 0 0 0
271 0 6 1.05 12.796164278938619 18.383006567255883 -51.30474884226551 0 0 0
336 0 7 1.575 14.138940383045037 23.41786829873765 -50.11490613321635 0 0 0
337 0 8 -1.05 15.28164065637113 24.534876547160348 -53.18454955485097 0 0 0
339 0 8 -1.05 15.412724625275908 22.386424691255055 -51.11968948672339 0 0 0
279 0 8 -1.05 15.2644116711711 20.579318157879417 -53.12819498362726 0 0 0
333 0 8 -1.05 13.118092945897507 24.62960087194497 -51.1243380678658 0 0 0
335 0 8 -1.05 13.377551759530482 22.67049585591652 -53.11014944666028 0 0 0
334 0 7 1.575 13.251276193885287 24.632523399055817 -53.14152161474403 0 0 0
270 0 8 -1.05 13.06997868833744 18.171442586575395 -53.223696461289045 0 0 0
338 0 7 1.575 15.338686738982245 22.546741472577747 -53.19864651474743 0 0 0
346 0 8 -1.05 19.68554366568558 22.925729622226367 -51.322311296343834 0 0 0
293 0 8 -1.05 21.578162441355314 18.250171205188952 -48.780255863573025 0 0 0
347 0 8 -1.05 18.10350379246624 23.08372362503425 -48.496685239354385 0 0 0
294 0 8 -1.05 21.478520328910044 20.16357903927039 -50.933965761712464 0 0 0
296 0 8 -1.05 23.440400739444303 20.281732717974613 -48.829611775132975 0 0 0
345 0 8 -1.05 17.562157781876707 24.60906140902779 -51.407720787665674 0 0 0
344 0 8 -1.05 15.13387754217729 22.370341673787074 -46.58857141472606 0 0 0
295 0 8 -1.05 23.536464638097033 18.132844633562843 -51.034505813982946 0 0 0
349 0 7 1.575 19.73079089621508 24.853904354375807 -51.47141523228238 0 0 0
298 0 6 1.05 23.596608295237427 20.214872985601342 -51.20116503867984 0 0 0
297 0 6 1.05 23.648286141578236 18.181628103449018 -48.99265663479779 0 0 0
292 0 7 1.575 21.439534635605945 20.190180643395966 -48.96841183908422 0 0 0
342 0 6 1.05 18.31534290687536 23.403834642169826 -52.962857949892026 0 0 0
343 0 7 1.575 17.16875794456409 24.46083962768402 -49.5343273866814 0 0 0
348 0 6 1.05 19.083475982847062 21.845547863018552 -49.78586890509159 0 0 0
291 0 7 1.575 21.533758935000677 18.13213010977526 -51.3003515699273 0 0 0
356 0 7 1.575 22.402541416769882 23.31847073092625 -50.074255755839154 0 0 0
285 0 7 1.575 18.196852448100408 19.06322197776209 -50.26752762164711 0 0 0
357 0 8 -1.05 23.828361781588555 24.550857616581656 -53.45853408795661 0 0 0
359 0 8 -1.05 23.72651462272219 22.336311232032628 -51.00882871539963 0 0 0
299 0 8 -1.05 23.90113236979003 20.429596367286095 -53.17299215782764 0 0 0
353 0 8 -1.05 21.58501706169099 24.799016191910674 -50.94176515233073 0 0 0
284 0 8 -1.05 17.63556536522432 18.403913339686678 -53.70079489574792 0 0 0
350 0 8 -1.05 19.66001404947871 24.82371483449914 -53.39059263160708 0 0 0
355 0 8 -1.05 21.527421301089262 22.405808211051 -53.230705205381064 0 0 0
286 0 8 -1.05 18.661011068562527 20.550409788493898 -51.42258006289289 0 0 0
287 0 6 1.05 19.50098920720232 17.81714381930827 -54.07611866092246 0 0 0
354 0 6 1.05 21.666408341185434 24.39165339556932 -53.64912732142997 0 0 0
283 0 6 1.05 16.944229950262738 20.224809038209237 -54.10287813909061 0 0 0
358 0 6 1.05 23.544650246038838 22.386611010051627 -53.169955927633566 0 0 0
351 0 7 1.575 20.406842422851014 21.240796672143162 -52.171810097208315 0 0 0
290 0 8 -1.05 21.251888168181303 18.165711856527995 -53.19720666976888 0 0 0
288 0 8 -1.05 19.568956749556303 17.91433570869667 -50.882791725747715 0 0 0
282 0 8 -1.05 15.166547635449382 20.394429545135278 -49.19371193329744 0 0 0
341 0 8 -1.05 17.123672857946378 22.245150602374107 -53.95326528104976 0 0 0
300 0 7 1.575 24.780823293774482 17.11888064693221 -52.222115154514604 0 0 0
416 0 7 1.575 7.56071381228556 4.404597672521138 -48.17428126479712 0 0 0
368 0 6 1.05 2.2449891546644962 3.386887650803315 -46.82110073722854 0 0 0
415 0 6 1.05 6.662340812690572 7.492859439795871 -46.87601761980203 0 0 0
361 0 7 1.575 0.03128545587332678 1.2981635587099594 -47.02156555797551 0 0 0
408 0 7 1.575 4.533708173907215 5.382571702218732 -46.82020519337278 0 0 0
371 0 8 -1.05 4.292305674573012 3.406241774081648 -46.65422142125036 0 0 0
411 0 8 -1.05 4.468327410761906 7.439302254527706 -46.78394442011471 0 0 0
80 0 8 -1.05 6.776174249654922 7.4661041831433845 -48.90055313538784 0 0 0
72 0 8 -1.05 4.5054173771327815 5.268038900363972 -48.79585087269504 0 0 0
365 0 8 -1.05 2.1091230966647485 1.2188802142606694 -46.797092672932145 0 0 0
406 0 8 -1.05 2.4835175352016248 5.4079321223354535 -46.81020303010153 0 0 0
412 0 8 -1.05 6.534226029698622 5.394176265264529 -46.784058496340066 0 0 0
364 0 8 -1.05 0.13961865235320398 3.2784337121012492 -46.962486759418425 0 0 0
9 0 8 -1.05 2.549908530226538 3.2384666597423504 -48.82343779152159 0 0 0
373 0 8 -1.05 6.779310501864002 0.9017409247187154 -46.44271741487968 0 0 0
404 0 8 -1.05 0.4143137284262628 9.652555548471621 -45.059229352905646 0 0 0
1 0 8 -1.05 0.3467564495674121 1.1465926472366212 -48.97116001244352 0 0 0
372 0 7 1.575 5.203507369115413 1.7838942580910577 -47.020648842064546 0 0 0
405 0 7 1.575 1.4092544081957528 6.665048245131595 -45.8965194569778 0 0 0
369 0 7 1.575 2.3928952716844227 1.2067130029333064 -48.90940248902589 0 0 0
663 0 7 1.575 3.57973851590888 4.28644692722226 -43.74307659793737 0 0 0
414 0 6 1.05 6.65256807160901 5.324577188605258 -44.75144221668543 0 0 0
362 0 6 1.05 0.2479316055698039 3.370104265626067 -44.96303551097522 0 0 0
409 0 7 1.575 4.571163254738741 7.584156253338782 -44.80002892182172 0 0 0
367 0 7 1.575 2.394227900904332 1.239010946379209 -44.80571733810781 0 0 0
366 0 8 -1.05 2.2679963588942766 3.199954207719051 -44.60287279173071 0 0 0
410 0 8 -1.05 4.54779834660394 5.574598164562724 -44.75541858338419 0 0 0
407 0 8 -1.05 2.4603069514916123 7.649758943107624 -44.54088682704403 0 0 0
363 0 8 -1.05 0.37249020822721307 1.2833509998433634 -44.67162799609333 0 0 0
665 0 8 -1.05 4.479075839745581 7.544797016148184 -42.646168172859646 0 0 0
374 0 8 -1.05 6.8580503297089335 3.1447407467717947 -44.44967271343456 0 0 0
667 0 8 -1.05 6.741307409197303 5.349582145684856 -42.5029493137327 0 0 0
413 0 8 -1.05 6.546274080630943 7.474324630262439 -44.68395678687372 0 0 0
615 0 7 1.575 1.5210425411625341 2.0580277356230745 -41.49064166349914 0 0 0
666 0 7 1.575 5.552577454392183 6.450625906355195 -41.50541424051752 0 0 0
618 0 7 1.575 4.541065284903884 1.2027030243254533 -42.552873790103426 0 0 0
655 0 6 1.05 0.39914131074864495 5.318855404463532 -42.79476360816242 0 0 0
625 0 6 1.05 6.664402749468768 3.3075030374496546 -42.45326467594992 0 0 0
662 0 7 1.575 2.5147673489611715 7.484283829950525 -42.57830452401101 0 0 0
622 0 8 -1.05 6.5593360970399095 1.105367861393713 -42.43923291619318 0 0 0
658 0 8 -1.05 0.4957994665667496 7.368819028579598 -42.4104976273553 0 0 0
621 0 8 -1.05 4.486138758961527 3.206803973816398 -42.343212809735086 0 0 0
659 0 8 -1.05 2.482780575812176 5.443299722030099 -42.55818976708026 0 0 0
616 0 8 -1.05 2.570971649163642 1.0732218753423242 -42.70786815032938 0 0 0
370 0 8 -1.05 4.630065078556853 1.1466139141975134 -44.51373025267245 0 0 0
403 0 8 -1.05 0.2508574580320768 5.571902019257034 -44.76046642324581 0 0 0
614 0 8 -1.05 0.21370714121716644 3.4389372623310823 -41.91145038622242 0 0 0
626 0 7 1.575 6.893796414280272 1.129966757259031 -44.50480666571785 0 0 0
418 0 8 -1.05 8.770579595228277 7.656116698291828 -46.83204514504784 0 0 0
21 0 8 -1.05 8.879684108791647 1.1435651048061002 -48.95130069804546 0 0 0
382 0 6 1.05 10.91044808247075 3.3238720716267283 -46.892592991551524 0 0 0
375 0 6 1.05 8.825702999149119 1.2718282044278384 -46.928019333436865 0 0 0
379 0 8 -1.05 10.919691872495955 1.216972243115295 -46.670542023120106 0 0 0
420 0 8 -1.05 11.037376707971983 5.383731247558838 -46.82285812323816 0 0 0
378 0 8 -1.05 8.784727077453582 3.354753364561725 -46.76585364658252 0 0 0
29 0 8 -1.05 11.082565820156162 3.363239388972545 -48.91933210280948 0 0 0
419 0 7 1.575 9.82221813082459 6.436247930730804 -45.81090198379958 0 0 0
383 0 7 1.575 12.034257943430127 0.21049550371211884 -47.92475645000023 0 0 0
417 0 8 -1.05 8.794423342741899 5.33544806044413 -44.54356285092623 0 0 0