LAMMPS data file via write_data, version 17 Feb 2022, timestep = 170

4356 atoms
10 atom types
72 bonds
6 bond types
108 angles
6 angle types
0 dihedrals
2 dihedral types
18 impropers
2 improper types

0 25.44 xlo xhi
0 25.44 ylo yhi
-64.778423 32.908 zlo zhi

Masses

1 12.011
2 1.008
3 15.9994
4 15.9994
5 1.008
6 55.845
7 55.845
8 15.9994
9 15.9994
10 1.008

Pair Coeffs # lj/cut/coul/long

1 0.0988 3.31521
2 0.0161 2.4473
3 0.1463 3.04812
4 0.093 3.24287
5 0.0047 0.537925
6 9.0298e-07 4.9062
7 9.0298e-07 4.9062
8 0.1554 3.16554
9 0.1554 3.16554
10 0 0

Bond Coeffs # harmonic

1 361.8 1.105
2 652.57 1.218
3 383.13 1.351
4 563.51 0.973
5 554.135 1
6 0 2.08

Angle Coeffs # harmonic

1 51.617 106.55
2 65.93 123.65
3 65.262 109.49
4 115.745 122.1
5 118.817 130.25
6 30 109.47

Dihedral Coeffs # fourier

1 1 2.3 2 180
2 2 2.3 2 180 1.9 1 0

Improper Coeffs # cvff

1 10.5 -1 2
2 10.5 -1 2

Atoms # full

71 0 7 1.575 3.307757322320219 4.496669532170966 -51.80280600108292 0 0 0
78 0 6 1.05 6.435171298325141 5.637515421472104 -53.0224148552255 0 0 0
3 0 6 1.05 25.439040189022304 3.410381345746807 -53.45023684232899 -1 0 0
74 0 6 1.05 4.381854291514519 7.7956661143154395 -53.6301771177324 0 0 0
7 0 6 1.05 2.140940266613004 1.1137065256382306 -53.556436801852165 0 0 0
6 0 8 -1.05 2.003108106231617 3.2588401914432925 -52.47873508645264 0 0 0
75 0 8 -1.05 4.631606739458137 5.879418059307778 -51.78488359819553 0 0 0
70 0 8 -1.05 2.529645659347152 7.607717295541067 -52.9616010271078 0 0 0
4 0 8 -1.05 0.20542906871017308 1.3330148629231018 -52.697268416044906 0 0 0
73 0 8 -1.05 3.6989270127468648 7.515853987099607 -49.68029417050659 0 0 0
19 0 8 -1.05 6.516427755532235 3.6110647492231402 -52.82283056735619 0 0 0
79 0 8 -1.05 6.736706431887684 5.190024536176492 -50.20942293156601 0 0 0
77 0 8 -1.05 6.308850808891191 7.643603113942924 -53.13500905397098 0 0 0
11 0 6 1.05 4.3786793706407625 1.2060487289648283 -51.337051512175044 0 0 0
62 0 7 1.575 0.04913556729047282 5.466584021709271 -51.16498572522224 0 0 0
18 0 7 1.575 6.448771920393469 3.302441970276349 -50.92172969344731 0 0 0
69 0 7 1.575 2.223606648988641 7.589628865118598 -51.105491236731964 0 0 0
15 0 8 -1.05 6.429534722602791 1.27152125984174 -51.00979098840171 0 0 0
65 0 8 -1.05 0.13433024797123955 7.505590290832339 -51.01243873017222 0 0 0
14 0 8 -1.05 4.408005836426224 3.2283108011588224 -50.756739694432454 0 0 0
66 0 8 -1.05 1.9671790571191765 5.55184930135503 -50.68236597480652 0 0 0
8 0 8 -1.05 2.18415526854942 0.8654675597253065 -50.64310038223807 0 0 0
10 0 8 -1.05 4.112940978512872 0.9951692324585077 -53.27842486094555 0 0 0
61 0 8 -1.05 25.309608018483296 5.378472709850032 -53.04738898569962 -1 0 0
2 0 8 -1.05 24.992149635454368 3.519570190365864 -51.059876392636575 -1 0 0
20 0 7 1.575 7.516224265561118 0.17575051381353576 -52.26392354396369 0 0 0
81 0 8 -1.05 8.440761563458057 5.364116758318661 -52.965028711543944 0 0 0
22 0 8 -1.05 8.478088883112997 3.3456144108165886 -50.94836957158644 0 0 0
91 0 7 1.575 11.64826913881357 4.551196562962266 -52.14904802420722 0 0 0
23 0 7 1.575 8.508110746441613 3.4235516611383883 -53.00659188031789 0 0 0
27 0 7 1.575 10.671667241238948 1.3639391540050905 -53.06472920609696 0 0 0
26 0 8 -1.05 10.527120205854478 3.3020080392540363 -53.0452422411349 0 0 0
90 0 8 -1.05 10.839564780327459 7.810227023775682 -53.110061854041 0 0 0
24 0 8 -1.05 8.68903999542865 1.4407319907885603 -53.0975112435161 0 0 0
82 0 6 1.05 8.608572789757062 5.545954779394701 -51.00530243024047 0 0 0
89 0 6 1.05 10.64191393436876 7.624986432169855 -51.11581130292447 0 0 0
85 0 8 -1.05 8.555657017255475 7.651803386573821 -50.80595690402306 0 0 0
86 0 8 -1.05 10.659994524674545 5.555705012086498 -50.790301523674266 0 0 0
28 0 8 -1.05 10.719643222656629 1.2221738435887812 -51.04033694961804 0 0 0
98 0 7 1.575 14.892650111908788 5.439461801197672 -53.06947601133726 0 0 0
94 0 7 1.575 12.806701545673764 7.615509119168383 -53.06438244950584 0 0 0
95 0 8 -1.05 12.92458148147978 5.618337473167898 -53.07774700626056 0 0 0
93 0 8 -1.05 12.741960944512291 7.686963057381614 -51.02664529263121 0 0 0
39 0 8 -1.05 14.99996524148151 3.407219386077227 -53.04375039146691 0 0 0
99 0 8 -1.05 14.966748009332667 5.555451361369914 -50.99757711003661 0 0 0
97 0 8 -1.05 14.79358218248727 7.441655293573986 -53.109174300333194 0 0 0
31 0 6 1.05 12.730214230313202 1.3707162157273713 -51.04672667764135 0 0 0
38 0 6 1.05 14.81775991219209 3.4919821020761312 -51.00952949028187 0 0 0
35 0 8 -1.05 14.780604615464785 1.4191218234466154 -51.00218664787789 0 0 0
34 0 8 -1.05 12.719481474012902 3.4724186219588176 -50.85876148174658 0 0 0
30 0 8 -1.05 12.92461046819089 1.2446217309996548 -53.10305086113014 0 0 0
40 0 7 1.575 14.944023538063172 1.3950814781682943 -53.02770584425095 0 0 0
60 0 7 1.575 24.428299720669003 25.36282811761741 -52.155971346926066 0 -1 0
50 0 8 -1.05 21.084579015777596 1.1178041422776521 -52.688390968279876 0 0 0
48 0 8 -1.05 19.242674111018044 0.7717271328384547 -50.33945549106633 0 0 0
106 0 8 -1.05 19.0878274966513 5.645189662270159 -50.95763728118796 0 0 0
54 0 8 -1.05 21.380888954684284 3.0134456992818124 -50.68151108300089 0 0 0
105 0 8 -1.05 17.153398252329527 7.623935091825136 -51.06710258451471 0 0 0
55 0 8 -1.05 23.350165878256412 1.116177378236259 -50.913824176111504 0 0 0
109 0 7 1.575 19.162832188150965 7.599591133981802 -51.33288030350786 0 0 0
58 0 7 1.575 23.155805982922036 2.9844079080998784 -51.56121111441445 0 0 0
102 0 7 1.575 17.00175294298283 5.595085781072231 -51.03316930552136 0 0 0
51 0 7 1.575 21.25060179017107 1.0373371970822902 -50.76226743652903 0 0 0
117 0 8 -1.05 23.162329726548037 7.50648474994461 -53.08517226444754 0 0 0
119 0 8 -1.05 24.207490394722345 5.636972406706635 -49.629234178252105 0 0 0
59 0 8 -1.05 23.40335052184367 3.4680339363410124 -53.383329744163014 0 0 0
113 0 8 -1.05 20.98955943153523 7.6840559658769205 -50.48939331752372 0 0 0
44 0 8 -1.05 16.917773440096607 1.3821017333689398 -53.462176627165384 0 0 0
110 0 8 -1.05 19.5288412646771 7.86657895913212 -53.19313610663397 0 0 0
115 0 8 -1.05 22.06726632815734 5.283815149328947 -51.713834824017475 0 0 0
46 0 8 -1.05 18.992349039541743 3.012117520464989 -52.13781737368281 0 0 0
47 0 6 1.05 19.16513808652096 1.3566363268328008 -53.34314299636824 0 0 0
114 0 6 1.05 21.44874332938727 8.162404337914422 -53.81945410707918 0 0 0
43 0 6 1.05 17.097785231036806 3.3504217219208092 -52.967155848224515 0 0 0
118 0 6 1.05 23.341509594886517 5.517824309443246 -53.39135935374583 0 0 0
111 0 7 1.575 20.342566974943555 4.335618058996099 -51.71655287699823 0 0 0
42 0 8 -1.05 16.836129782756046 3.6317005051806395 -50.74188117042219 0 0 0
101 0 8 -1.05 16.865009966447094 5.355128804354624 -52.959210591327796 0 0 0
140 0 7 1.575 7.637991118735725 8.637123311770482 -52.218615173133905 0 0 0
128 0 8 -1.05 2.244184242767451 9.49995952197244 -50.839901889663246 0 0 0
130 0 8 -1.05 4.1244682828832335 9.76427027514242 -53.650657148749815 0 0 0
123 0 7 1.575 0.06512218828562226 11.89466897233031 -52.97517299490165 0 0 0
127 0 6 1.05 2.1684350635430105 9.720314643586779 -53.0972220068407 0 0 0
126 0 8 -1.05 2.020305038473622 11.801976619684247 -52.81121621849342 0 0 0
124 0 8 -1.05 0.1276321098651286 9.922080655912747 -52.9795058329018 0 0 0
139 0 8 -1.05 6.617731643168805 12.022227488018869 -53.00893943955038 0 0 0
131 0 7 1.575 5.205094151168902 10.7968387434358 -52.55208679285011 0 0 0
138 0 6 1.05 6.652329584321349 12.035961710833424 -50.9156418431771 0 0 0
135 0 8 -1.05 6.40747872232316 9.916879713713827 -51.21591940402842 0 0 0
134 0 8 -1.05 4.446402485330156 12.010207455278621 -51.19132418634667 0 0 0
122 0 8 -1.05 25.321024739377453 11.961304059294562 -50.9016393874631 -1 0 0
191 0 7 1.575 3.1079590503467123 13.25141328106122 -52.285292816747585 0 0 0
198 0 7 1.575 6.471830164379377 14.102193828960193 -53.01990540366596 0 0 0
194 0 6 1.05 4.356567740303221 16.191587745383778 -53.366697360254506 0 0 0
195 0 8 -1.05 4.531004896623326 14.086261073069883 -53.20972962025764 0 0 0
190 0 8 -1.05 2.325810433190047 16.278643573781327 -52.93331653620254 0 0 0
193 0 8 -1.05 4.121149573626563 16.196279206116152 -50.635894610972514 0 0 0
199 0 8 -1.05 6.522355013422232 14.049280705483094 -50.95926309056766 0 0 0
197 0 8 -1.05 6.378165775536574 16.036919122871545 -53.04423620737311 0 0 0
182 0 6 1.05 0.051627593852167114 14.069011406384986 -50.99688936065889 0 0 0
189 0 7 1.575 2.1647258659481454 16.164501411444025 -51.02086040841127 0 0 0
185 0 8 -1.05 0.09905770525190179 16.243782014105122 -50.7803939544888 0 0 0
186 0 8 -1.05 2.1671925691868323 14.187847823203 -50.879274705059714 0 0 0
181 0 8 -1.05 25.386814225361576 13.872738563315057 -52.98707131364017 -1 0 0
142 0 8 -1.05 8.64986430210853 11.996331725648131 -50.99260351932905 0 0 0
148 0 8 -1.05 10.75290669992446 9.724570965668986 -51.0187249616479 0 0 0
143 0 7 1.575 8.66029843419655 11.92713368130738 -53.03154161523114 0 0 0
147 0 7 1.575 10.742537551930187 9.784599569880669 -53.06392242622048 0 0 0
146 0 8 -1.05 10.630485689286727 11.774201291430572 -53.07429626658396 0 0 0
144 0 8 -1.05 8.74172595804719 9.94636797192424 -53.06951064316226 0 0 0
201 0 8 -1.05 8.422387959649958 13.859406854603558 -53.07250499578529 0 0 0
211 0 7 1.575 11.831952566124627 12.997402660822768 -52.24047518961905 0 0 0
210 0 8 -1.05 11.064969901042765 16.329896069741007 -53.22069164627422 0 0 0
202 0 6 1.05 8.597717604474878 14.106874467367954 -51.07588076034914 0 0 0
209 0 7 1.575 10.586872684409952 16.13696753706479 -51.42951041025995 0 0 0
205 0 8 -1.05 8.678273963826548 16.17994536703036 -50.97339452851091 0 0 0
206 0 8 -1.05 10.726368982821812 14.168300244675597 -50.97433275072178 0 0 0
160 0 7 1.575 15.931542790391699 8.72996710528395 -52.276186420069344 0 0 0
150 0 8 -1.05 12.69495992112386 9.5820621648666 -53.09665462250371 0 0 0
159 0 8 -1.05 15.085955776733167 11.94226638860918 -53.030829473974315 0 0 0
151 0 6 1.05 12.849961703797154 9.786874329948501 -51.098945792946985 0 0 0
158 0 7 1.575 14.941521267160265 11.842004067186716 -51.114782570971116 0 0 0
155 0 8 -1.05 14.955355527161943 9.839030690374019 -50.97040197493911 0 0 0
154 0 8 -1.05 12.890950753290316 11.974198174968372 -50.87913521675894 0 0 0
218 0 6 1.05 14.988269909141238 14.043307773235885 -53.173693360797465 0 0 0
214 0 7 1.575 12.987602962601693 16.1819888611107 -53.44536425650763 0 0 0
215 0 8 -1.05 12.980382323833128 14.26844239517346 -53.06415034078533 0 0 0
213 0 8 -1.05 12.637618038558625 16.11680166653422 -50.73037395445088 0 0 0
219 0 8 -1.05 15.121599730386274 13.810864612504766 -50.967778100834536 0 0 0
217 0 8 -1.05 14.898049373504255 16.22270961084847 -52.98121451678251 0 0 0
174 0 8 -1.05 21.184581235303387 11.882936651321984 -50.81466008695066 0 0 0
175 0 8 -1.05 23.308443585218775 9.672745779033804 -50.889444381967294 0 0 0
178 0 6 1.05 23.25054125526525 11.837947902297882 -51.21407170588696 0 0 0
171 0 6 1.05 21.26873074023533 9.81582391330223 -51.175938908800546 0 0 0
179 0 8 -1.05 23.56417805622551 12.082936743918916 -53.15677708157667 0 0 0
164 0 8 -1.05 17.190025529083865 9.852480729627882 -53.17830039742176 0 0 0
166 0 8 -1.05 18.969224549979938 11.773283599784698 -53.054516190706664 0 0 0
167 0 7 1.575 19.152493304509772 9.837156880782116 -53.12054331539375 0 0 0
163 0 7 1.575 17.021576053819885 11.859393555303352 -53.15464678611731 0 0 0
170 0 8 -1.05 21.082107681637623 9.96127594798578 -53.141462733550206 0 0 0
168 0 8 -1.05 19.14603212065304 9.596300743739565 -51.0527881233794 0 0 0
162 0 8 -1.05 16.9835465276952 11.852637893366634 -51.02202376117915 0 0 0
180 0 7 1.575 24.406768409277927 8.65870301251379 -52.20050864243033 0 0 0
226 0 8 -1.05 19.189479964248505 14.103495692906458 -50.96710196339345 0 0 0
225 0 8 -1.05 17.12464631222969 16.166846291351764 -50.8268888955934 0 0 0
229 0 7 1.575 19.14320063725138 16.1300781148869 -50.959449014158416 0 0 0
222 0 6 1.05 17.14812670478832 14.040236642383995 -51.304587880691706 0 0 0
237 0 8 -1.05 23.26112528386659 16.00439388146592 -52.94471994790252 0 0 0
239 0 8 -1.05 23.38893776597567 13.940881297177219 -50.926641504774786 0 0 0
233 0 8 -1.05 21.119039351562435 16.299341342245366 -50.7759364795522 0 0 0
230 0 8 -1.05 19.07682511565484 16.236614673127033 -52.87071396074266 0 0 0
235 0 8 -1.05 21.439587988608 14.080685741350653 -53.068569285729964 0 0 0
234 0 6 1.05 21.21168455096828 16.092458778676342 -53.16846935498856 0 0 0
238 0 7 1.575 23.404798721790343 14.048905310874936 -53.01943532540046 0 0 0
231 0 7 1.575 20.213404780912896 12.936921422711814 -52.21149098949674 0 0 0
221 0 8 -1.05 16.97044051906733 13.795479339733435 -53.262026790077854 0 0 0
260 0 7 1.575 7.509614106167628 17.28708402002187 -52.19724018645075 0 0 0
248 0 8 -1.05 2.21505176120154 18.164812748152205 -50.920438943876796 0 0 0
250 0 8 -1.05 4.1081630448872435 18.193413381325456 -53.0621950826867 0 0 0
311 0 7 1.575 3.276067633415766 21.332179434343974 -52.15977373763554 0 0 0
318 0 6 1.05 6.476275620259909 22.392729575801756 -53.323062750091985 0 0 0
243 0 7 1.575 0.03594981907051719 20.331919134002156 -53.03463742804447 0 0 0
314 0 7 1.575 4.3221016437637045 24.478388855610014 -53.18684164738764 0 0 0
247 0 7 1.575 2.176998290716257 18.24822847677529 -53.022987692138024 0 0 0
246 0 8 -1.05 1.9948301632967864 20.2325706768572 -53.0242656813522 0 0 0
315 0 8 -1.05 4.398037340663478 22.537268431344657 -53.09262549805453 0 0 0
310 0 8 -1.05 2.3079158706344787 24.579261769003015 -53.151328983225845 0 0 0
244 0 8 -1.05 0.20423971135872157 18.353467355629967 -52.9962860886632 0 0 0
313 0 8 -1.05 4.12674282674707 24.526865951610365 -51.0680975455142 0 0 0
259 0 8 -1.05 6.729048770514181 20.361432846376854 -52.98102182272604 0 0 0
319 0 8 -1.05 6.529292687637439 22.299550158080965 -50.791996122102674 0 0 0
317 0 8 -1.05 6.2698820438171055 24.457445595853706 -53.08709500372328 0 0 0
251 0 6 1.05 4.366193645330054 18.23295038409905 -51.08552566594799 0 0 0
302 0 7 1.575 25.41468828453427 22.31875074747708 -50.82919377398771 -1 0 0
258 0 7 1.575 6.412169986262741 20.338595989692166 -51.082847624828894 0 0 0
309 0 7 1.575 2.110097165038333 24.384920350597017 -51.273575805816805 0 0 0
255 0 8 -1.05 6.495007589221683 18.299256572727465 -50.828021419921264 0 0 0
305 0 8 -1.05 0.12485253373085667 24.379357300362873 -50.863549093179444 0 0 0
254 0 8 -1.05 4.415803335528777 20.353223964839376 -50.90544828241257 0 0 0
306 0 8 -1.05 2.1035229093526224 22.44535874021014 -50.88049895472076 0 0 0
301 0 8 -1.05 25.228657433820274 22.266779854795324 -52.74363019993483 -1 0 0
242 0 8 -1.05 25.390131168948304 20.312489327884226 -50.90149565694123 -1 0 0
326 0 8 -1.05 10.753439019294373 22.446055823061922 -50.9355307265637 0 0 0
325 0 8 -1.05 8.556711481419157 24.56493445324679 -50.938065388974884 0 0 0
329 0 6 1.05 10.61808005385025 24.536257514847048 -51.238531571927126 0 0 0
322 0 6 1.05 8.54693258493164 22.5100617521496 -51.253911460134894 0 0 0
264 0 8 -1.05 8.833654949721945 18.366042028604234 -53.03053970619629 0 0 0
330 0 8 -1.05 10.970870914886532 24.90729503972061 -53.20219033855081 0 0 0
266 0 8 -1.05 10.713836695997195 20.258745333829612 -53.041085805468725 0 0 0
267 0 6 1.05 10.813155679672537 18.29827516480121 -53.70623134077396 0 0 0
263 0 7 1.575 8.709069485685255 20.323527240347236 -53.05100897070209 0 0 0
321 0 8 -1.05 8.550486024445798 22.250919326986786 -53.21251809526649 0 0 0
262 0 8 -1.05 8.498258754253909 20.42251639609833 -50.974955835561126 0 0 0
268 0 8 -1.05 10.759144595092328 17.937383293337174 -50.5082797079576 0 0 0
331 0 7 1.575 11.866900672284752 21.56191328496318 -52.3030018367284 0 0 0
280 0 7 1.575 16.48641555163697 17.18616793613505 -52.46454305856671 0 0 0
274 0 8 -1.05 13.215367541318667 20.53309206251139 -51.16826586796767 0 0 0
275 0 8 -1.05 15.496464268754329 18.639580917855305 -51.4118689546667 0 0 0
278 0 7 1.575 15.542507969460583 20.644173485762806 -51.258142308209464 0 0 0
271 0 6 1.05 14.060764524683693 19.167755894792947 -52.910747914213445 0 0 0
337 0 8 -1.05 14.8590001090341 24.7901813303754 -53.34874853779774 0 0 0
339 0 8 -1.05 15.16306651178584 22.56057117754131 -51.10739143605553 0 0 0
279 0 8 -1.05 15.201231759072865 20.792184657789033 -53.1538787350393 0 0 0
333 0 8 -1.05 12.75877672337212 24.703173855189757 -51.0745157621965 0 0 0
335 0 8 -1.05 13.114783075132703 22.775978223213095 -53.1025952365091 0 0 0
334 0 7 1.575 12.877707428636338 24.699581168368425 -53.09984345676406 0 0 0
270 0 8 -1.05 12.870485173649763 18.055806432164086 -53.947866328829576 0 0 0
338 0 7 1.575 15.108909183553743 22.79487565863605 -53.124922505626195 0 0 0
346 0 8 -1.05 19.153395434670617 22.73067974525324 -50.57088365100897 0 0 0
294 0 8 -1.05 21.071082216330737 20.22618685431523 -50.82563280055582 0 0 0
345 0 8 -1.05 17.297767593588468 24.67751873397997 -51.393923128256276 0 0 0
295 0 8 -1.05 23.121418599508917 18.299171039101893 -50.94392551744634 0 0 0
349 0 7 1.575 19.244076395249035 24.456984364923674 -51.42611583934988 0 0 0
298 0 6 1.05 23.15162733420482 20.317479310872034 -51.38589610232803 0 0 0
342 0 6 1.05 17.1446237647213 24.715716812349687 -53.449978173797234 0 0 0
291 0 7 1.575 21.123960189211317 18.24879929573853 -51.24301701148078 0 0 0
357 0 8 -1.05 23.213050034254675 24.32692864740518 -53.140109833869296 0 0 0
359 0 8 -1.05 23.440031806452435 22.098234527905635 -50.40275539302092 0 0 0
299 0 8 -1.05 23.554188569402086 20.344643551345683 -53.300346134779964 0 0 0
353 0 8 -1.05 21.16723353804979 24.53372066549478 -50.799307216955505 0 0 0
284 0 8 -1.05 17.303910673586635 18.522386245865867 -53.62888565060456 0 0 0
350 0 8 -1.05 19.210187425052066 24.781210758191616 -53.32224744496541 0 0 0
355 0 8 -1.05 21.057367634501265 22.409557437395712 -52.781484727697574 0 0 0
286 0 8 -1.05 17.94859914783353 20.47769331378344 -51.57086961890167 0 0 0
287 0 6 1.05 19.1304491732906 17.849749421146164 -54.00373950470979 0 0 0
354 0 6 1.05 21.242528290241122 24.484016121566135 -53.27184512816032 0 0 0
283 0 6 1.05 17.158103586535468 20.59830173521514 -53.61571255588341 0 0 0
358 0 6 1.05 23.15195656463829 22.324720807390428 -53.34928888336494 0 0 0
351 0 7 1.575 19.761214251496956 21.368183183373354 -51.812306602407396 0 0 0
290 0 8 -1.05 20.884352235239362 18.1671805411054 -53.127268027958124 0 0 0
288 0 8 -1.05 19.22081758974917 18.125154204772365 -50.56209577562755 0 0 0
282 0 8 -1.05 16.082070581117904 20.44576619752029 -49.39793271219185 0 0 0
341 0 8 -1.05 16.929451233669866 22.714454596242003 -53.75572485596058 0 0 0
300 0 7 1.575 24.395885930420416 17.245161959024493 -52.09777633832716 0 0 0
5 0 7 1.575 0.9896264777225524 2.267609558540466 -51.144198540568674 0 0 0
416 0 7 1.575 7.375676524304762 4.477225079116396 -48.04977859306539 0 0 0
76 0 7 1.575 5.322969481225468 6.476105234502242 -49.9979586491301 0 0 0
368 0 6 1.05 2.0925941207883785 3.424752997941352 -46.838996915430656 0 0 0
415 0 6 1.05 6.4270328516353326 7.618977440089512 -46.789144842456516 0 0 0
68 0 6 1.05 2.5693167048399967 5.910449774374677 -48.78273107635135 0 0 0
63 0 6 1.05 25.16367820178036 7.496330780549074 -49.02914763568795 -1 0 0
12 0 7 1.575 4.326689791261777 3.2163417623787707 -48.806672537282914 0 0 0
17 0 6 1.05 6.4094551247220375 1.064219750255923 -49.028936442093844 0 0 0
361 0 7 1.575 25.38635741059319 1.413526617338111 -46.65102739968862 -1 0 0
408 0 7 1.575 4.443109935091054 5.261623132619732 -46.62693691927779 0 0 0
371 0 8 -1.05 4.206803450257229 3.2457420199166593 -46.67431839596464 0 0 0
411 0 8 -1.05 4.307949112415903 7.536870168768105 -46.561165577806165 0 0 0
64 0 8 -1.05 25.072654802780676 6.411531917848837 -47.225875747474745 -1 0 0
80 0 8 -1.05 6.5005572442546935 7.692028533469677 -48.82398683196928 0 0 0
72 0 8 -1.05 4.434539532101272 5.179425761228349 -48.59678315425229 0 0 0
365 0 8 -1.05 2.201453771440519 1.3138606462207594 -46.48207890342234 0 0 0
16 0 8 -1.05 6.3044178060623 3.0359452629523425 -48.754686373617936 0 0 0
406 0 8 -1.05 2.4604497362239135 5.380214181513344 -46.65572949058728 0 0 0
412 0 8 -1.05 6.410733931349188 5.487556769957883 -46.6360858023104 0 0 0
67 0 8 -1.05 1.7150123098827477 7.657999938010559 -47.98963879874216 0 0 0
13 0 8 -1.05 4.251747886866811 1.2081721560096061 -48.494206222270385 0 0 0
364 0 8 -1.05 0.05288421570582188 3.4106928300089767 -46.64653841830925 0 0 0
9 0 8 -1.05 2.3388984085758016 3.0419827231845114 -48.796723541844756 0 0 0
373 0 8 -1.05 6.348459203198019 0.9985669561821249 -46.414191267295365 0 0 0
404 0 8 -1.05 0.4439315926102648 8.467005575079659 -45.58823081298563 0 0 0
1 0 8 -1.05 0.19455238487734566 1.1495952499138686 -48.566273762700064 0 0 0
372 0 7 1.575 4.368576404573206 1.2614144242069874 -46.54896734600544 0 0 0
405 0 7 1.575 1.2429779075365586 6.789580192875531 -46.24399829118123 0 0 0
369 0 7 1.575 2.243032434519575 1.0190686210731448 -48.70578465483927 0 0 0
663 0 7 1.575 3.4507230106036446 4.370702320692299 -43.4520625664982 0 0 0
414 0 6 1.05 6.546974169443319 5.37509059669388 -44.61774603335911 0 0 0
362 0 6 1.05 0.09052174869490198 3.568097105300543 -44.6576529729745 0 0 0
409 0 7 1.575 4.452829819997386 7.508219873591945 -44.589688323644545 0 0 0
367 0 7 1.575 2.177670656900051 1.3321156683164814 -44.492751342544906 0 0 0
366 0 8 -1.05 2.125891513626711 3.284201481624687 -44.26492286395862 0 0 0
410 0 8 -1.05 4.487501261323721 5.498622477026615 -44.575957300927264 0 0 0
407 0 8 -1.05 2.47213001040367 7.487134352149025 -44.244130082158385 0 0 0
363 0 8 -1.05 0.19577257574260754 1.41849736116261 -44.52914209833985 0 0 0
374 0 8 -1.05 6.712714942410781 3.259756017175327 -44.29179419944949 0 0 0
413 0 8 -1.05 6.414927408501139 7.467395403371378 -44.42223924690348 0 0 0
370 0 8 -1.05 4.312469804231682 1.219079786382185 -44.414563023437225 0 0 0
403 0 8 -1.05 25.327501248115865 5.748162591674065 -44.4147742606439 -1 0 0
626 0 7 1.575 6.645678765776381 1.249944448402561 -44.50385995827905 0 0 0
418 0 8 -1.05 8.552275004012008 7.8015117813601425 -46.72061911428166 0 0 0
21 0 8 -1.05 8.551237211632602 1.0740349860481189 -48.816437796075725 0 0 0
25 0 7 1.575 9.629044001610135 2.278492659912282 -49.89912989697803 0 0 0
382 0 6 1.05 10.627275449941786 3.399500590609156 -46.78380129401484 0 0 0
88 0 7 1.575 10.71143920339754 5.5544470122915754 -48.845940250711934 0 0 0
83 0 7 1.575 8.533839881606966 7.643842693262848 -48.855069712967904 0 0 0
375 0 6 1.05 8.51218424321501 1.2914256448451227 -46.833269847234085 0 0 0
84 0 8 -1.05 8.790724045715821 5.680087356407582 -48.53453973483561 0 0 0
379 0 8 -1.05 10.655883023788965 1.2617111529994187 -46.64540078098555 0 0 0
420 0 8 -1.05 10.841376682651681 5.467514795522658 -46.5055480235651 0 0 0
87 0 8 -1.05 10.606463857870013 7.5645628325977 -48.70769480242235 0 0 0
378 0 8 -1.05 8.527793003403147 3.407017465029555 -46.71031858846198 0 0 0
29 0 8 -1.05 10.725136375520973 3.4885631768356107 -48.80504230293034 0 0 0
419 0 7 1.575 9.574869360268718 6.598963914337364 -45.66725486285907 0 0 0
383 0 7 1.575 11.676536386762084 0.19267637715625208 -47.922539283934185 0 0 0
417 0 8 -1.05 8.658865572429528 5.382020016245627 -44.39182655251035 0 0 0
677 0 7 1.575 11.64708576623077 4.561712600843556 -43.692855105462066 0 0 0
376 0 7 1.575 8.606136070262973 3.421256943870385 -44.786721480109854 0 0 0
381 0 7 1.575 10.595021211204301 1.1384630855878217 -44.66016480869394 0 0 0
380 0 8 -1.05 10.569420031595218 3.23687354120822 -44.56359297931581 0 0 0
421 0 8 -1.05 10.762520329000779 7.72556492532971 -44.48432153826743 0 0 0
377 0 8 -1.05 8.601297008359746 1.4156405189168184 -44.674710705013375 0 0 0
430 0 7 1.575 15.975216054819645 4.501392993407296 -47.978158407354016 0 0 0
96 0 7 1.575 13.824011110399383 6.621216956311473 -49.909808584723926 0 0 0
429 0 7 1.575 14.91912386653506 7.705370199875648 -46.79054496343446 0 0 0
32 0 7 1.575 12.725357248844887 3.452279288036683 -48.90318251563276 0 0 0
37 0 7 1.575 14.887697544044158 1.350664446554289 -49.05087002854144 0 0 0
422 0 6 1.05 12.877968210516316 5.494339899045442 -46.72389123717278 0 0 0
385 0 8 -1.05 12.698575344307413 3.4404170507574214 -46.82980559244001 0 0 0
425 0 8 -1.05 12.90348042780025 7.678450584254767 -46.499292417052565 0 0 0
100 0 8 -1.05 14.876598762964278 7.739098155421201 -48.72361188646857 0 0 0
92 0 8 -1.05 12.705514253942487 5.491701822704966 -48.76089298385858 0 0 0
36 0 8 -1.05 14.705797328637088 3.336599941808016 -48.81617832831555 0 0 0
426 0 8 -1.05 14.94173486584939 5.676801082260067 -46.77811345940848 0 0 0
33 0 8 -1.05 12.856445554326058 1.3934758255896893 -48.834897162905044 0 0 0
387 0 8 -1.05 14.957031643446065 1.1279996935111485 -46.98759291444798 0 0 0
386 0 7 1.575 13.669036617852111 2.073175519952002 -45.97790855199033 0 0 0
428 0 6 1.05 15.236707038560683 5.7947858385278055 -44.86303030508994 0 0 0
423 0 7 1.575 12.828109795605558 7.630789814776856 -44.509539620782384 0 0 0
424 0 8 -1.05 13.113075843445028 5.60880534373307 -44.38862292347291 0 0 0
388 0 8 -1.05 14.628787073743283 2.8561463485039082 -44.49391372062863 0 0 0
427 0 8 -1.05 14.824096467765731 7.710617406801586 -44.48753971931592 0 0 0
384 0 8 -1.05 12.661163912223621 0.9339666157391907 -44.73663192017041 0 0 0
640 0 7 1.575 16.100600451982555 25.132105591871696 -43.817095986506324 0 -1 0
397 0 7 1.575 19.90814262529608 0.15687336014616096 -47.82551978389393 0 0 0
433 0 7 1.575 18.831334263269934 7.5007641702179715 -46.44288565284164 0 0 0
400 0 7 1.575 22.278670781769634 2.4988091307950206 -45.71523109671985 0 0 0
401 0 8 -1.05 23.444400763204186 1.1940371651628732 -46.461142951575475 0 0 0
49 0 8 -1.05 19.099104302994895 3.446699864477926 -48.74365143188583 0 0 0
392 0 8 -1.05 16.952782339376824 3.3640671024702398 -46.710535033281346 0 0 0
53 0 8 -1.05 21.329581128906675 1.1183745722644256 -48.683751130205394 0 0 0
107 0 8 -1.05 19.042809474957593 7.593715656767364 -48.41875784190009 0 0 0
440 0 8 -1.05 22.94499735023239 5.328977391265498 -46.3826510017937 0 0 0
434 0 8 -1.05 19.100745506384182 5.495930633574752 -46.59577315705877 0 0 0
56 0 8 -1.05 23.19427088518674 3.2296132504910577 -48.34155307403758 0 0 0
393 0 8 -1.05 18.978136154887785 1.4146712350040394 -46.60918776348909 0 0 0
112 0 8 -1.05 21.173007064039176 5.609111594884619 -48.6779927230285 0 0 0
120 0 8 -1.05 22.995554991905998 7.821027662575419 -48.691449050740644 0 0 0
104 0 8 -1.05 17.029328850742157 5.72701939117169 -48.97780738244856 0 0 0
439 0 8 -1.05 21.06674760570394 7.471694404908075 -46.60050162581734 0 0 0
399 0 8 -1.05 20.890206132514535 3.5188771167748216 -46.56135214935795 0 0 0
436 0 7 1.575 21.064533496638735 5.471875391492793 -46.72521420496602 0 0 0
389 0 6 1.05 16.99034530943126 1.2372901597298038 -47.02426382134526 0 0 0
57 0 6 1.05 23.440688169561106 1.2656399702340722 -48.8368483108293 0 0 0
52 0 6 1.05 21.215523406843477 3.2175047484131936 -48.68350748054811 0 0 0
103 0 6 1.05 17.011140434717444 7.780076801386559 -49.00764310668947 0 0 0
108 0 6 1.05 19.059506797799624 5.540358569266012 -48.91968339045098 0 0 0
443 0 6 1.05 23.34259377502073 7.471847445071185 -46.690691348557486 0 0 0
396 0 7 1.575 18.924713900090367 3.4689894177695644 -46.7722716753622 0 0 0
116 0 7 1.575 22.401234685452593 6.329749015960856 -50.11314818603117 0 0 0
444 0 7 1.575 24.295846835152116 4.685156181077318 -47.80098037189067 0 0 0
45 0 7 1.575 18.214623150567945 2.4110878618456706 -50.23309906599047 0 0 0
41 0 8 -1.05 16.89959530121644 1.3330246784965958 -49.02858221784135 0 0 0
432 0 8 -1.05 16.88865160496761 7.820996834973282 -46.552180791662224 0 0 0
654 0 7 1.575 24.534216088995812 0.19676685786163037 -43.53107335355818 0 0 0
398 0 8 -1.05 21.06258182271559 1.4636626434105076 -44.52338786110151 0 0 0
441 0 8 -1.05 23.28206704654113 7.472308182971928 -44.45847301163363 0 0 0
402 0 8 -1.05 23.410232834847047 3.4877613018746274 -44.363667090498836 0 0 0
391 0 8 -1.05 17.0446015752651 1.434464670690722 -43.59307583597754 0 0 0
435 0 8 -1.05 19.182489269629723 7.702498429641846 -44.39615982645611 0 0 0
438 0 8 -1.05 21.271231201817834 5.559205102689768 -44.28993513927386 0 0 0
394 0 8 -1.05 18.857463888499428 3.250917934015063 -44.53610966844789 0 0 0
395 0 7 1.575 19.03003739657348 1.2758528054462162 -44.66498494930207 0 0 0
437 0 6 1.05 21.25154580357104 7.67370526733684 -44.57141584716375 0 0 0
390 0 6 1.05 16.737084819986713 3.089581736259733 -44.754800487596974 0 0 0
442 0 7 1.575 23.27618156991783 5.483116504562978 -44.477628886860586 0 0 0
691 0 7 1.575 19.97645770381896 4.410127184398904 -43.47530992536211 0 0 0
431 0 8 -1.05 16.396771065145817 4.729056542319072 -43.66331558426611 0 0 0
453 0 7 1.575 3.413183201408407 8.634477695729046 -48.07945725189632 0 0 0
457 0 8 -1.05 6.639769344198907 9.674165300360958 -46.415679847392106 0 0 0
125 0 7 1.575 1.1551192185617212 10.833532225792828 -50.102561835847006 0 0 0
452 0 7 1.575 2.3044050278071437 11.92700551232058 -47.00034804294488 0 0 0
132 0 7 1.575 4.366919107936179 11.9092602947526 -49.2741250673841 0 0 0
137 0 6 1.05 6.390712452484218 9.755427660446935 -49.144019893284685 0 0 0
445 0 7 1.575 0.2512660570257602 9.728402422427083 -47.060401109426266 0 0 0
455 0 8 -1.05 3.902389645833616 11.992912716183211 -45.80143415047075 0 0 0
449 0 8 -1.05 2.228243209941766 9.996403352754621 -46.802564845362696 0 0 0
136 0 8 -1.05 6.394011058170436 11.946724592164177 -48.88844983067779 0 0 0
133 0 8 -1.05 4.501775345660723 10.185569094088388 -48.35001697095804 0 0 0
448 0 8 -1.05 0.2522180475188954 11.755909880757034 -46.891049991876116 0 0 0
129 0 8 -1.05 2.3574825307862075 11.909624233324758 -48.92013200878167 0 0 0
121 0 8 -1.05 25.362290203309534 9.700412983372123 -48.93377407377352 -1 0 0
456 0 7 1.575 5.342914173202059 10.748425818716164 -45.584035979125446 0 0 0
710 0 7 1.575 7.546180625913561 8.688102172416881 -43.49112036735248 0 0 0
454 0 8 -1.05 4.355440888721193 9.516426214830163 -44.40650472807156 0 0 0
446 0 6 1.05 0.12764330324410675 11.933572214603073 -44.95331135828494 0 0 0