LAMMPS data file via write_data, version 29 Sep 2021, timestep = 9141525

2970 atoms
10 atom types
72 bonds
6 bond types
108 angles
6 angle types
0 dihedrals
2 dihedral types
18 impropers
2 improper types

0 25.44 xlo xhi
0 25.44 ylo yhi
-41.458422 32.908 zlo zhi

Masses

1 12.011
2 1.008
3 15.9994
4 15.9994
5 1.008
6 55.845
7 55.845
8 15.9994
9 15.9994
10 1.008

Pair Coeffs # lj/cut/coul/long

1 0.0988 3.31521
2 0.0161 2.4473
3 0.1463 3.04812
4 0.093 3.24287
5 0.0047 0.537925
6 9.0298e-07 4.9062
7 9.0298e-07 4.9062
8 0.1554 3.16554
9 0.1554 3.16554
10 0 0

Bond Coeffs # harmonic

1 361.8 1.105
2 652.57 1.218
3 383.13 1.351
4 563.51 0.973
5 554.135 1
6 0 2.08

Angle Coeffs # harmonic

1 51.617 106.55
2 65.93 123.65
3 65.262 109.49
4 115.745 122.1
5 118.817 130.25
6 30 109.47

Dihedral Coeffs # fourier

1 1 2.3 2 180
2 2 2.3 2 180 1.9 1 0

Improper Coeffs # cvff

1 10.5 -1 2
2 10.5 -1 2

Atoms # full

3 0 7 1.575 0.08117800000000011 1.2794399999999997 -29.421587 0 0 0
73 0 7 1.575 4.321177999999998 5.519439999999998 -29.421587 0 0 0
7 0 7 1.575 2.201177999999998 3.3994399999999976 -29.421587 0 0 0
6 0 8 -1.05 2.1643429999999997 1.3162749999999996 -29.458421999999995 0 0 0
70 0 8 -1.05 2.238012999999998 5.4826039999999985 -29.384752000000002 0 0 0
4 0 8 -1.05 0.11801300000000006 3.3626049999999994 -29.458421999999995 0 0 0
11 0 8 -1.05 4.284341999999999 3.4362749999999975 -29.384752000000002 0 0 0
10 0 7 1.575 3.2611779999999992 0.21943999999999877 -28.361587000000004 0 0 0
13 0 6 1.05 4.321177999999998 3.3994399999999976 -27.301587 0 0 0
68 0 6 1.05 2.201177999999998 5.519439999999998 -27.301587 0 0 0
1 0 8 -1.05 0.04434300000000016 1.2426049999999997 -27.338423000000002 0 0 0
9 0 8 -1.05 2.238012999999998 3.4362749999999975 -27.338423000000002 0 0 0
64 0 8 -1.05 0.11801300000000006 5.556274999999998 -27.264751999999998 0 0 0
14 0 8 -1.05 4.358012999999998 1.3162749999999996 -27.264751999999998 0 0 0
71 0 8 -1.05 4.284341999999999 5.4826039999999985 -27.338423000000002 0 0 0
74 0 8 -1.05 4.358012999999998 7.602605 -29.458421999999995 0 0 0
123 0 7 1.575 0.08117800000000011 9.759440000000001 -29.421587 0 0 0
127 0 6 1.05 2.201177999999998 11.879439999999999 -29.421587 0 0 0
126 0 8 -1.05 2.1643429999999997 9.796275000000001 -29.458421999999995 0 0 0
61 0 8 -1.05 0.04434300000000016 7.6762749999999995 -29.384752000000002 0 0 0
124 0 8 -1.05 0.11801300000000006 11.842604999999999 -29.458421999999995 0 0 0
131 0 8 -1.05 4.284341999999999 11.916274999999999 -29.384752000000002 0 0 0
67 0 8 -1.05 2.1643429999999997 7.602605 -27.264751999999998 0 0 0
130 0 7 1.575 3.2611779999999992 8.69944 -28.361587000000004 0 0 0
133 0 7 1.575 4.321177999999998 11.879439999999999 -27.301587 0 0 0
63 0 6 1.05 0.08117800000000011 7.63944 -27.301587 0 0 0
121 0 8 -1.05 0.04434300000000016 9.722605000000001 -27.338423000000002 0 0 0
129 0 8 -1.05 2.238012999999998 11.916274999999999 -27.338423000000002 0 0 0
134 0 8 -1.05 4.358012999999998 9.796275000000001 -27.264751999999998 0 0 0
76 0 8 -1.05 6.404343 5.556274999999998 -29.458421999999995 0 0 0
23 0 7 1.575 8.561178000000002 1.2794399999999997 -29.421587 0 0 0
27 0 6 1.05 10.681178 3.3994399999999976 -29.421587 0 0 0
26 0 8 -1.05 10.644343 1.3162749999999996 -29.458421999999995 0 0 0
90 0 8 -1.05 10.718013 5.4826039999999985 -29.384752000000002 0 0 0
24 0 8 -1.05 8.598013000000002 3.3626049999999994 -29.458421999999995 0 0 0
20 0 8 -1.05 6.478013 1.2426049999999997 -29.384752000000002 0 0 0
17 0 8 -1.05 6.404343 3.3626049999999994 -27.264751999999998 0 0 0
30 0 7 1.575 11.741177999999998 0.21943999999999877 -28.361587000000004 0 0 0
80 0 7 1.575 7.501178 4.459439999999999 -28.361587000000004 0 0 0
18 0 7 1.575 6.441178 1.2794399999999997 -27.301587 0 0 0
88 0 7 1.575 10.681178 5.519439999999998 -27.301587 0 0 0
21 0 8 -1.05 8.524343000000002 1.2426049999999997 -27.338423000000002 0 0 0
29 0 8 -1.05 10.718013 3.4362749999999975 -27.338423000000002 0 0 0
84 0 8 -1.05 8.598013000000002 5.556274999999998 -27.264751999999998 0 0 0
143 0 7 1.575 8.561178000000002 9.759440000000001 -29.421587 0 0 0
77 0 6 1.05 6.441178 7.63944 -29.421587 0 0 0
147 0 6 1.05 10.681178 11.879439999999999 -29.421587 0 0 0
146 0 8 -1.05 10.644343 9.796275000000001 -29.458421999999995 0 0 0
81 0 8 -1.05 8.524343000000002 7.6762749999999995 -29.384752000000002 0 0 0
144 0 8 -1.05 8.598013000000002 11.842604999999999 -29.458421999999995 0 0 0
140 0 8 -1.05 6.478013 9.722605000000001 -29.384752000000002 0 0 0
137 0 8 -1.05 6.404343 11.842604999999999 -27.264751999999998 0 0 0
87 0 8 -1.05 10.644343 7.602605 -27.264751999999998 0 0 0
150 0 7 1.575 11.741177999999998 8.69944 -28.361587000000004 0 0 0
138 0 7 1.575 6.441178 9.759440000000001 -27.301587 0 0 0
83 0 7 1.575 8.561178000000002 7.63944 -27.301587 0 0 0
141 0 8 -1.05 8.524343000000002 9.722605000000001 -27.338423000000002 0 0 0
149 0 8 -1.05 10.718013 11.916274999999999 -27.338423000000002 0 0 0
79 0 8 -1.05 6.478013 7.6762749999999995 -27.338423000000002 0 0 0
75 0 7 1.575 5.381177999999999 6.579439999999999 -26.241587 0 0 0
5 0 7 1.575 1.1411780000000002 2.3394399999999997 -26.241587 0 0 0
66 0 8 -1.05 2.1643429999999997 5.556274999999998 -25.218422 0 0 0
15 0 8 -1.05 4.358012999999998 3.3626049999999994 -25.218422 0 0 0
405 0 7 1.575 1.1411780000000002 6.579439999999999 -22.001587000000004 0 0 0
371 0 7 1.575 5.381177999999999 2.3394399999999997 -22.001587000000004 0 0 0
408 0 7 1.575 3.2611779999999992 4.459439999999999 -24.121587 0 0 0
361 0 6 1.05 0.08117800000000011 1.2794399999999997 -20.941586999999995 0 0 0
409 0 6 1.05 4.321177999999998 5.519439999999998 -20.941586999999995 0 0 0
362 0 6 1.05 0.08117800000000011 3.3994399999999976 -23.061587 0 0 0
367 0 7 1.575 2.201177999999998 1.2794399999999997 -23.061587 0 0 0
12 0 7 1.575 4.321177999999998 1.2794399999999997 -25.181586999999997 0 0 0
62 0 7 1.575 0.08117800000000011 5.519439999999998 -25.181586999999997 0 0 0
368 0 7 1.575 2.201177999999998 3.3994399999999976 -20.941586999999995 0 0 0
365 0 8 -1.05 2.1643429999999997 1.3162749999999996 -20.978422 0 0 0
406 0 8 -1.05 2.238012999999998 5.4826039999999985 -20.904752 0 0 0
411 0 8 -1.05 4.358012999999998 5.556274999999998 -23.024752000000003 0 0 0
366 0 8 -1.05 2.1643429999999997 3.3626049999999994 -23.024752000000003 0 0 0
369 0 8 -1.05 4.284341999999999 1.2426049999999997 -23.098421999999996 0 0 0
364 0 8 -1.05 0.11801300000000006 3.3626049999999994 -20.978422 0 0 0
370 0 8 -1.05 4.284341999999999 3.4362749999999975 -20.904752 0 0 0
8 0 8 -1.05 2.238012999999998 1.2426049999999997 -25.144751999999993 0 0 0
403 0 8 -1.05 0.04434300000000016 5.4826039999999985 -23.098421999999996 0 0 0
2 0 8 -1.05 0.04434300000000016 3.4362749999999975 -25.144751999999993 0 0 0
363 0 8 -1.05 0.11801300000000006 1.3162749999999996 -23.024752000000003 0 0 0
618 0 7 1.575 3.2611779999999992 0.21943999999999877 -19.881586999999993 0 0 0
65 0 8 -1.05 0.11801300000000006 7.602605 -25.218422 0 0 0
412 0 8 -1.05 4.358012999999998 7.602605 -20.978422 0 0 0
125 0 7 1.575 1.1411780000000002 10.81944 -26.241587 0 0 0
135 0 8 -1.05 4.358012999999998 11.842604999999999 -25.218422 0 0 0
455 0 7 1.575 5.381177999999999 10.81944 -22.001587000000004 0 0 0
69 0 7 1.575 2.201177999999998 7.63944 -25.181586999999997 0 0 0
445 0 7 1.575 0.08117800000000011 9.759440000000001 -20.941586999999995 0 0 0
446 0 6 1.05 0.08117800000000011 11.879439999999999 -23.061587 0 0 0
451 0 7 1.575 2.201177999999998 9.759440000000001 -23.061587 0 0 0
410 0 6 1.05 4.321177999999998 7.63944 -23.061587 0 0 0
132 0 6 1.05 4.321177999999998 9.759440000000001 -25.181586999999997 0 0 0
452 0 6 1.05 2.201177999999998 11.879439999999999 -20.941586999999995 0 0 0
72 0 8 -1.05 4.284341999999999 7.6762749999999995 -25.144751999999993 0 0 0
449 0 8 -1.05 2.1643429999999997 9.796275000000001 -20.978422 0 0 0
450 0 8 -1.05 2.1643429999999997 11.842604999999999 -23.024752000000003 0 0 0
404 0 8 -1.05 0.04434300000000016 7.6762749999999995 -20.904752 0 0 0
453 0 8 -1.05 4.284341999999999 9.722605000000001 -23.098421999999996 0 0 0
448 0 8 -1.05 0.11801300000000006 11.842604999999999 -20.978422 0 0 0
454 0 8 -1.05 4.284341999999999 11.916274999999999 -20.904752 0 0 0
128 0 8 -1.05 2.238012999999998 9.722605000000001 -25.144751999999993 0 0 0
407 0 8 -1.05 2.238012999999998 7.6762749999999995 -23.098421999999996 0 0 0
122 0 8 -1.05 0.04434300000000016 11.916274999999999 -25.144751999999993 0 0 0
447 0 8 -1.05 0.11801300000000006 9.796275000000001 -23.024752000000003 0 0 0
702 0 7 1.575 3.2611779999999992 8.69944 -19.881586999999993 0 0 0
16 0 8 -1.05 6.404343 1.3162749999999996 -25.218422 0 0 0
413 0 8 -1.05 6.404343 5.556274999999998 -20.978422 0 0 0
25 0 7 1.575 9.621178 2.3394399999999997 -26.241587 0 0 0
86 0 8 -1.05 10.644343 5.556274999999998 -25.218422 0 0 0
374 0 7 1.575 7.501178 0.21943999999999877 -24.121587 0 0 0
419 0 7 1.575 9.621178 6.579439999999999 -22.001587000000004 0 0 0
422 0 7 1.575 11.741177999999998 4.459439999999999 -24.121587 0 0 0
375 0 6 1.05 8.561178000000002 1.2794399999999997 -20.941586999999995 0 0 0
376 0 7 1.575 8.561178000000002 3.3994399999999976 -23.061587 0 0 0
415 0 7 1.575 6.441178 5.519439999999998 -23.061587 0 0 0
19 0 6 1.05 6.441178 3.3994399999999976 -25.181586999999997 0 0 0
381 0 7 1.575 10.681178 1.2794399999999997 -23.061587 0 0 0
82 0 6 1.05 8.561178000000002 5.519439999999998 -25.181586999999997 0 0 0
382 0 6 1.05 10.681178 3.3994399999999976 -20.941586999999995 0 0 0
379 0 8 -1.05 10.644343 1.3162749999999996 -20.978422 0 0 0
420 0 8 -1.05 10.718013 5.4826039999999985 -20.904752 0 0 0
373 0 8 -1.05 6.478013 3.4362749999999975 -23.098421999999996 0 0 0
78 0 8 -1.05 6.478013 5.4826039999999985 -25.144751999999993 0 0 0
380 0 8 -1.05 10.644343 3.3626049999999994 -23.024752000000003 0 0 0
378 0 8 -1.05 8.598013000000002 3.3626049999999994 -20.978422 0 0 0
28 0 8 -1.05 10.718013 1.2426049999999997 -25.144751999999993 0 0 0
417 0 8 -1.05 8.524343000000002 5.4826039999999985 -23.098421999999996 0 0 0
372 0 8 -1.05 6.478013 1.2426049999999997 -20.904752 0 0 0
22 0 8 -1.05 8.524343000000002 3.4362749999999975 -25.144751999999993 0 0 0
377 0 8 -1.05 8.598013000000002 1.3162749999999996 -23.024752000000003 0 0 0
632 0 7 1.575 11.741177999999998 0.21943999999999877 -19.881586999999993 0 0 0
668 0 7 1.575 7.501178 4.459439999999999 -19.881586999999993 0 0 0
414 0 8 -1.05 6.404343 7.602605 -23.024752000000003 0 0 0
136 0 8 -1.05 6.404343 9.796275000000001 -25.218422 0 0 0
85 0 8 -1.05 8.598013000000002 7.602605 -25.218422 0 0 0
145 0 7 1.575 9.621178 10.81944 -26.241587 0 0 0
458 0 7 1.575 7.501178 8.69944 -24.121587 0 0 0
89 0 6 1.05 10.681178 7.63944 -25.181586999999997 0 0 0
459 0 6 1.05 8.561178000000002 9.759440000000001 -20.941586999999995 0 0 0
460 0 7 1.575 8.561178000000002 11.879439999999999 -23.061587 0 0 0
139 0 6 1.05 6.441178 11.879439999999999 -25.181586999999997 0 0 0
465 0 7 1.575 10.681178 9.759440000000001 -23.061587 0 0 0
416 0 7 1.575 6.441178 7.63944 -20.941586999999995 0 0 0
466 0 6 1.05 10.681178 11.879439999999999 -20.941586999999995 0 0 0
463 0 8 -1.05 10.644343 9.796275000000001 -20.978422 0 0 0
457 0 8 -1.05 6.478013 11.916274999999999 -23.098421999999996 0 0 0
464 0 8 -1.05 10.644343 11.842604999999999 -23.024752000000003 0 0 0
418 0 8 -1.05 8.524343000000002 7.6762749999999995 -20.904752 0 0 0
462 0 8 -1.05 8.598013000000002 11.842604999999999 -20.978422 0 0 0
148 0 8 -1.05 10.718013 9.722605000000001 -25.144751999999993 0 0 0
421 0 8 -1.05 10.718013 7.6762749999999995 -23.098421999999996 0 0 0
456 0 8 -1.05 6.478013 9.722605000000001 -20.904752 0 0 0
142 0 8 -1.05 8.524343000000002 11.916274999999999 -25.144751999999993 0 0 0
461 0 8 -1.05 8.598013000000002 9.796275000000001 -23.024752000000003 0 0 0
716 0 7 1.575 11.741177999999998 8.69944 -19.881586999999993 0 0 0
665 0 7 1.575 5.381177999999999 6.579439999999999 -17.761587000000002 0 0 0
615 0 7 1.575 1.1411780000000002 2.3394399999999997 -17.761587000000002 0 0 0
620 0 6 1.05 4.321177999999998 3.3994399999999976 -18.821587000000005 0 0 0
661 0 7 1.575 2.201177999999998 5.519439999999998 -18.821587000000005 0 0 0
613 0 8 -1.05 0.04434300000000016 1.2426049999999997 -18.858423000000005 0 0 0
617 0 8 -1.05 2.238012999999998 3.4362749999999975 -18.858423000000005 0 0 0
657 0 8 -1.05 0.11801300000000006 5.556274999999998 -18.784752000000008 0 0 0
659 0 8 -1.05 2.1643429999999997 5.556274999999998 -16.738422000000003 0 0 0
621 0 8 -1.05 4.358012999999998 1.3162749999999996 -18.784752000000008 0 0 0
622 0 8 -1.05 4.358012999999998 3.3626049999999994 -16.738422000000003 0 0 0
663 0 8 -1.05 4.284341999999999 5.4826039999999985 -18.858423000000005 0 0 0
912 0 7 1.575 1.1411780000000002 6.579439999999999 -13.521587000000004 0 0 0
876 0 7 1.575 5.381177999999999 2.3394399999999997 -13.521587000000004 0 0 0
915 0 7 1.575 3.2611779999999992 4.459439999999999 -15.641586999999998 0 0 0
866 0 6 1.05 0.08117800000000011 3.3994399999999976 -14.581587000000003 0 0 0
871 0 7 1.575 2.201177999999998 1.2794399999999997 -14.581587000000003 0 0 0
619 0 6 1.05 4.321177999999998 1.2794399999999997 -16.701587 0 0 0
655 0 7 1.575 0.08117800000000011 5.519439999999998 -16.701587 0 0 0
869 0 8 -1.05 2.1643429999999997 1.3162749999999996 -12.498421999999998 0 0 0
918 0 8 -1.05 4.358012999999998 5.556274999999998 -14.544752000000003 0 0 0
870 0 8 -1.05 2.1643429999999997 3.3626049999999994 -14.544752000000003 0 0 0
874 0 8 -1.05 4.284341999999999 1.2426049999999997 -14.618421999999995 0 0 0
868 0 8 -1.05 0.11801300000000006 3.3626049999999994 -12.498421999999998 0 0 0
616 0 8 -1.05 2.238012999999998 1.2426049999999997 -16.664751999999996 0 0 0
910 0 8 -1.05 0.04434300000000016 5.4826039999999985 -14.618421999999995 0 0 0
614 0 8 -1.05 0.04434300000000016 3.4362749999999975 -16.664751999999996 0 0 0
867 0 8 -1.05 0.11801300000000006 1.3162749999999996 -14.544752000000003 0 0 0
865 0 6 1.05 0.08117800000000011 1.2794399999999997 -12.461587000000009 0 0 0
916 0 6 1.05 4.321177999999998 5.519439999999998 -12.461587000000009 0 0 0
872 0 7 1.575 2.201177999999998 3.3994399999999976 -12.461587000000009 0 0 0
913 0 8 -1.05 2.238012999999998 5.4826039999999985 -12.424752000000002 0 0 0
875 0 8 -1.05 4.284341999999999 3.4362749999999975 -12.424752000000002 0 0 0
658 0 8 -1.05 0.11801300000000006 7.602605 -16.738422000000003 0 0 0
660 0 8 -1.05 2.1643429999999997 7.602605 -18.784752000000008 0 0 0
919 0 8 -1.05 4.358012999999998 7.602605 -12.498421999999998 0 0 0
699 0 7 1.575 1.1411780000000002 10.81944 -17.761587000000002 0 0 0
704 0 7 1.575 4.321177999999998 11.879439999999999 -18.821587000000005 0 0 0
656 0 6 1.05 0.08117800000000011 7.63944 -18.821587000000005 0 0 0
697 0 8 -1.05 0.04434300000000016 9.722605000000001 -18.858423000000005 0 0 0
701 0 8 -1.05 2.238012999999998 11.916274999999999 -18.858423000000005 0 0 0
705 0 8 -1.05 4.358012999999998 9.796275000000001 -18.784752000000008 0 0 0
706 0 8 -1.05 4.358012999999998 11.842604999999999 -16.738422000000003 0 0 0
966 0 7 1.575 5.381177999999999 10.81944 -13.521587000000004 0 0 0
662 0 6 1.05 2.201177999999998 7.63944 -16.701587 0 0 0
956 0 6 1.05 0.08117800000000011 11.879439999999999 -14.581587000000003 0 0 0
961 0 7 1.575 2.201177999999998 9.759440000000001 -14.581587000000003 0 0 0
917 0 6 1.05 4.321177999999998 7.63944 -14.581587000000003 0 0 0
703 0 7 1.575 4.321177999999998 9.759440000000001 -16.701587 0 0 0
664 0 8 -1.05 4.284341999999999 7.6762749999999995 -16.664751999999996 0 0 0
959 0 8 -1.05 2.1643429999999997 9.796275000000001 -12.498421999999998 0 0 0
960 0 8 -1.05 2.1643429999999997 11.842604999999999 -14.544752000000003 0 0 0
964 0 8 -1.05 4.284341999999999 9.722605000000001 -14.618421999999995 0 0 0
958 0 8 -1.05 0.11801300000000006 11.842604999999999 -12.498421999999998 0 0 0
700 0 8 -1.05 2.238012999999998 9.722605000000001 -16.664751999999996 0 0 0
914 0 8 -1.05 2.238012999999998 7.6762749999999995 -14.618421999999995 0 0 0
698 0 8 -1.05 0.04434300000000016 11.916274999999999 -16.664751999999996 0 0 0
957 0 8 -1.05 0.11801300000000006 9.796275000000001 -14.544752000000003 0 0 0
955 0 7 1.575 0.08117800000000011 9.759440000000001 -12.461587000000009 0 0 0
962 0 6 1.05 2.201177999999998 11.879439999999999 -12.461587000000009 0 0 0
911 0 8 -1.05 0.04434300000000016 7.6762749999999995 -12.424752000000002 0 0 0
965 0 8 -1.05 4.284341999999999 11.916274999999999 -12.424752000000002 0 0 0
624 0 8 -1.05 6.404343 3.3626049999999994 -18.784752000000008 0 0 0
623 0 8 -1.05 6.404343 1.3162749999999996 -16.738422000000003 0 0 0
920 0 8 -1.05 6.404343 5.556274999999998 -12.498421999999998 0 0 0
629 0 7 1.575 9.621178 2.3394399999999997 -17.761587000000002 0 0 0
625 0 7 1.575 6.441178 1.2794399999999997 -18.821587000000005 0 0 0
675 0 7 1.575 10.681178 5.519439999999998 -18.821587000000005 0 0 0
627 0 8 -1.05 8.524343000000002 1.2426049999999997 -18.858423000000005 0 0 0
631 0 8 -1.05 10.718013 3.4362749999999975 -18.858423000000005 0 0 0
671 0 8 -1.05 8.598013000000002 5.556274999999998 -18.784752000000008 0 0 0
673 0 8 -1.05 10.644343 5.556274999999998 -16.738422000000003 0 0 0
879 0 7 1.575 7.501178 0.21943999999999877 -15.641586999999998 0 0 0
927 0 7 1.575 9.621178 6.579439999999999 -13.521587000000004 0 0 0
930 0 7 1.575 11.741177999999998 4.459439999999999 -15.641586999999998 0 0 0
881 0 6 1.05 8.561178000000002 3.3994399999999976 -14.581587000000003 0 0 0
922 0 7 1.575 6.441178 5.519439999999998 -14.581587000000003 0 0 0
626 0 7 1.575 6.441178 3.3994399999999976 -16.701587 0 0 0
886 0 7 1.575 10.681178 1.2794399999999997 -14.581587000000003 0 0 0
669 0 6 1.05 8.561178000000002 5.519439999999998 -16.701587 0 0 0
884 0 8 -1.05 10.644343 1.3162749999999996 -12.498421999999998 0 0 0
878 0 8 -1.05 6.478013 3.4362749999999975 -14.618421999999995 0 0 0
666 0 8 -1.05 6.478013 5.4826039999999985 -16.664751999999996 0 0 0
885 0 8 -1.05 10.644343 3.3626049999999994 -14.544752000000003 0 0 0
883 0 8 -1.05 8.598013000000002 3.3626049999999994 -12.498421999999998 0 0 0
630 0 8 -1.05 10.718013 1.2426049999999997 -16.664751999999996 0 0 0
925 0 8 -1.05 8.524343000000002 5.4826039999999985 -14.618421999999995 0 0 0
628 0 8 -1.05 8.524343000000002 3.4362749999999975 -16.664751999999996 0 0 0
882 0 8 -1.05 8.598013000000002 1.3162749999999996 -14.544752000000003 0 0 0
880 0 6 1.05 8.561178000000002 1.2794399999999997 -12.461587000000009 0 0 0
887 0 7 1.575 10.681178 3.3994399999999976 -12.461587000000009 0 0 0
928 0 8 -1.05 10.718013 5.4826039999999985 -12.424752000000002 0 0 0
877 0 8 -1.05 6.478013 1.2426049999999997 -12.424752000000002 0 0 0
921 0 8 -1.05 6.404343 7.602605 -14.544752000000003 0 0 0
708 0 8 -1.05 6.404343 11.842604999999999 -18.784752000000008 0 0 0
707 0 8 -1.05 6.404343 9.796275000000001 -16.738422000000003 0 0 0
672 0 8 -1.05 8.598013000000002 7.602605 -16.738422000000003 0 0 0
674 0 8 -1.05 10.644343 7.602605 -18.784752000000008 0 0 0
713 0 7 1.575 9.621178 10.81944 -17.761587000000002 0 0 0
709 0 6 1.05 6.441178 9.759440000000001 -18.821587000000005 0 0 0
670 0 7 1.575 8.561178000000002 7.63944 -18.821587000000005 0 0 0
711 0 8 -1.05 8.524343000000002 9.722605000000001 -18.858423000000005 0 0 0
715 0 8 -1.05 10.718013 11.916274999999999 -18.858423000000005 0 0 0
667 0 8 -1.05 6.478013 7.6762749999999995 -18.858423000000005 0 0 0
969 0 7 1.575 7.501178 8.69944 -15.641586999999998 0 0 0
676 0 6 1.05 10.681178 7.63944 -16.701587 0 0 0
971 0 7 1.575 8.561178000000002 11.879439999999999 -14.581587000000003 0 0 0
710 0 6 1.05 6.441178 11.879439999999999 -16.701587 0 0 0
976 0 7 1.575 10.681178 9.759440000000001 -14.581587000000003 0 0 0
974 0 8 -1.05 10.644343 9.796275000000001 -12.498421999999998 0 0 0
968 0 8 -1.05 6.478013 11.916274999999999 -14.618421999999995 0 0 0
975 0 8 -1.05 10.644343 11.842604999999999 -14.544752000000003 0 0 0
973 0 8 -1.05 8.598013000000002 11.842604999999999 -12.498421999999998 0 0 0
714 0 8 -1.05 10.718013 9.722605000000001 -16.664751999999996 0 0 0
929 0 8 -1.05 10.718013 7.6762749999999995 -14.618421999999995 0 0 0
712 0 8 -1.05 8.524343000000002 11.916274999999999 -16.664751999999996 0 0 0
972 0 8 -1.05 8.598013000000002 9.796275000000001 -14.544752000000003 0 0 0
970 0 6 1.05 8.561178000000002 9.759440000000001 -12.461587000000009 0 0 0
923 0 7 1.575 6.441178 7.63944 -12.461587000000009 0 0 0
977 0 6 1.05 10.681178 11.879439999999999 -12.461587000000009 0 0 0
926 0 8 -1.05 8.524343000000002 7.6762749999999995 -12.424752000000002 0 0 0
967 0 8 -1.05 6.478013 9.722605000000001 -12.424752000000002 0 0 0
1188 0 7 1.575 5.381177999999999 6.579439999999999 -9.281586999999998 0 0 0
873 0 7 1.575 3.2611779999999992 0.21943999999999877 -11.401587000000003 0 0 0
1137 0 7 1.575 1.1411780000000002 2.3394399999999997 -9.281586999999998 0 0 0
1141 0 6 1.05 4.321177999999998 3.3994399999999976 -10.341587 0 0 0
1183 0 7 1.575 2.201177999999998 5.519439999999998 -10.341587 0 0 0
1135 0 8 -1.05 0.04434300000000016 1.2426049999999997 -10.378423000000009 0 0 0
1139 0 8 -1.05 2.238012999999998 3.4362749999999975 -10.378423000000009 0 0 0
1179 0 8 -1.05 0.11801300000000006 5.556274999999998 -10.304751999999997 0 0 0
1181 0 8 -1.05 2.1643429999999997 5.556274999999998 -8.258421999999992 0 0 0
1142 0 8 -1.05 4.358012999999998 1.3162749999999996 -10.304751999999997 0 0 0
1143 0 8 -1.05 4.358012999999998 3.3626049999999994 -8.258421999999992 0 0 0
1186 0 8 -1.05 4.284341999999999 5.4826039999999985 -10.378423000000009 0 0 0
1431 0 7 1.575 1.1411780000000002 6.579439999999999 -5.0415870000000105 0 0 0
1398 0 7 1.575 5.381177999999999 2.3394399999999997 -5.0415870000000105 0 0 0
1185 0 7 1.575 3.2611779999999992 4.459439999999999 -7.161587000000008 0 0 0
1388 0 7 1.575 0.08117800000000011 3.3994399999999976 -6.101587000000013 0 0 0
1393 0 6 1.05 2.201177999999998 1.2794399999999997 -6.101587000000013 0 0 0
1140 0 7 1.575 4.321177999999998 1.2794399999999997 -8.221586999999996 0 0 0
1177 0 6 1.05 0.08117800000000011 5.519439999999998 -8.221586999999996 0 0 0
1436 0 8 -1.05 4.358012999999998 5.556274999999998 -6.064752000000009 0 0 0
1392 0 8 -1.05 2.1643429999999997 3.3626049999999994 -6.064752000000009 0 0 0
1396 0 8 -1.05 4.284341999999999 1.2426049999999997 -6.138422000000009 0 0 0
1138 0 8 -1.05 2.238012999999998 1.2426049999999997 -8.184752000000007 0 0 0
1430 0 8 -1.05 0.04434300000000016 5.4826039999999985 -6.138422000000009 0 0 0
1136 0 8 -1.05 0.04434300000000016 3.4362749999999975 -8.184752000000007 0 0 0
1390 0 8 -1.05 0.11801300000000006 1.3162749999999996 -6.064752000000009 0 0 0
1180 0 8 -1.05 0.11801300000000006 7.602605 -8.258421999999992 0 0 0
1182 0 8 -1.05 2.1643429999999997 7.602605 -10.304751999999997 0 0 0
963 0 7 1.575 3.2611779999999992 8.69944 -11.401587000000003 0 0 0
1221 0 7 1.575 1.1411780000000002 10.81944 -9.281586999999998 0 0 0
1225 0 7 1.575 4.321177999999998 11.879439999999999 -10.341587 0 0 0
1178 0 6 1.05 0.08117800000000011 7.63944 -10.341587 0 0 0
1219 0 8 -1.05 0.04434300000000016 9.722605000000001 -10.378423000000009 0 0 0
1223 0 8 -1.05 2.238012999999998 11.916274999999999 -10.378423000000009 0 0 0
1226 0 8 -1.05 4.358012999999998 9.796275000000001 -10.304751999999997 0 0 0
1227 0 8 -1.05 4.358012999999998 11.842604999999999 -8.258421999999992 0 0 0
1482 0 7 1.575 5.381177999999999 10.81944 -5.0415870000000105 0 0 0
1184 0 7 1.575 2.201177999999998 7.63944 -8.221586999999996 0 0 0
1472 0 7 1.575 0.08117800000000011 11.879439999999999 -6.101587000000013 0 0 0
1477 0 7 1.575 2.201177999999998 9.759440000000001 -6.101587000000013 0 0 0
1434 0 6 1.05 4.321177999999998 7.63944 -6.101587000000013 0 0 0
1224 0 6 1.05 4.321177999999998 9.759440000000001 -8.221586999999996 0 0 0
1187 0 8 -1.05 4.284341999999999 7.6762749999999995 -8.184752000000007 0 0 0
1476 0 8 -1.05 2.1643429999999997 11.842604999999999 -6.064752000000009 0 0 0
1480 0 8 -1.05 4.284341999999999 9.722605000000001 -6.138422000000009 0 0 0
1222 0 8 -1.05 2.238012999999998 9.722605000000001 -8.184752000000007 0 0 0
1432 0 8 -1.05 2.238012999999998 7.6762749999999995 -6.138422000000009 0 0 0
1220 0 8 -1.05 0.04434300000000016 11.916274999999999 -8.184752000000007 0 0 0
1474 0 8 -1.05 0.11801300000000006 9.796275000000001 -6.064752000000009 0 0 0
1145 0 8 -1.05 6.404343 3.3626049999999994 -10.304751999999997 0 0 0
1144 0 8 -1.05 6.404343 1.3162749999999996 -8.258421999999992 0 0 0
888 0 7 1.575 11.741177999999998 0.21943999999999877 -11.401587000000003 0 0 0
924 0 7 1.575 7.501178 4.459439999999999 -11.401587000000003 0 0 0
1151 0 7 1.575 9.621178 2.3394399999999997 -9.281586999999998 0 0 0
1146 0 7 1.575 6.441178 1.2794399999999997 -10.341587 0 0 0
1197 0 7 1.575 10.681178 5.519439999999998 -10.341587 0 0 0
1149 0 8 -1.05 8.524343000000002 1.2426049999999997 -10.378423000000009 0 0 0
1153 0 8 -1.05 10.718013 3.4362749999999975 -10.378423000000009 0 0 0
1193 0 8 -1.05 8.598013000000002 5.556274999999998 -10.304751999999997 0 0 0
1195 0 8 -1.05 10.644343 5.556274999999998 -8.258421999999992 0 0 0
1148 0 7 1.575 7.501178 0.21943999999999877 -7.161587000000008 0 0 0
1445 0 7 1.575 9.621178 6.579439999999999 -5.0415870000000105 0 0 0
1199 0 7 1.575 11.741177999999998 4.459439999999999 -7.161587000000008 0 0 0
1402 0 7 1.575 8.561178000000002 3.3994399999999976 -6.101587000000013 0 0 0
1441 0 7 1.575 6.441178 5.519439999999998 -6.101587000000013 0 0 0
1147 0 6 1.05 6.441178 3.3994399999999976 -8.221586999999996 0 0 0
1407 0 6 1.05 10.681178 1.2794399999999997 -6.101587000000013 0 0 0
1191 0 6 1.05 8.561178000000002 5.519439999999998 -8.221586999999996 0 0 0
1400 0 8 -1.05 6.478013 3.4362749999999975 -6.138422000000009 0 0 0
1189 0 8 -1.05 6.478013 5.4826039999999985 -8.184752000000007 0 0 0
1406 0 8 -1.05 10.644343 3.3626049999999994 -6.064752000000009 0 0 0
1152 0 8 -1.05 10.718013 1.2426049999999997 -8.184752000000007 0 0 0
1444 0 8 -1.05 8.524343000000002 5.4826039999999985 -6.138422000000009 0 0 0
1150 0 8 -1.05 8.524343000000002 3.4362749999999975 -8.184752000000007 0 0 0
1404 0 8 -1.05 8.598013000000002 1.3162749999999996 -6.064752000000009 0 0 0
1439 0 8 -1.05 6.404343 7.602605 -6.064752000000009 0 0 0
1229 0 8 -1.05 6.404343 11.842604999999999 -10.304751999999997 0 0 0
1228 0 8 -1.05 6.404343 9.796275000000001 -8.258421999999992 0 0 0
1194 0 8 -1.05 8.598013000000002 7.602605 -8.258421999999992 0 0 0
1196 0 8 -1.05 10.644343 7.602605 -10.304751999999997 0 0 0
978 0 7 1.575 11.741177999999998 8.69944 -11.401587000000003 0 0 0
1235 0 7 1.575 9.621178 10.81944 -9.281586999999998 0 0 0
1230 0 6 1.05 6.441178 9.759440000000001 -10.341587 0 0 0
1192 0 7 1.575 8.561178000000002 7.63944 -10.341587 0 0 0
1233 0 8 -1.05 8.524343000000002 9.722605000000001 -10.378423000000009 0 0 0
1237 0 8 -1.05 10.718013 11.916274999999999 -10.378423000000009 0 0 0
1190 0 8 -1.05 6.478013 7.6762749999999995 -10.378423000000009 0 0 0
1232 0 7 1.575 7.501178 8.69944 -7.161587000000008 0 0 0
1198 0 6 1.05 10.681178 7.63944 -8.221586999999996 0 0 0
1486 0 7 1.575 8.561178000000002 11.879439999999999 -6.101587000000013 0 0 0
1231 0 7 1.575 6.441178 11.879439999999999 -8.221586999999996 0 0 0
1491 0 6 1.05 10.681178 9.759440000000001 -6.101587000000013 0 0 0
1484 0 8 -1.05 6.478013 11.916274999999999 -6.138422000000009 0 0 0
1490 0 8 -1.05 10.644343 11.842604999999999 -6.064752000000009 0 0 0
1236 0 8 -1.05 10.718013 9.722605000000001 -8.184752000000007 0 0 0
1447 0 8 -1.05 10.718013 7.6762749999999995 -6.138422000000009 0 0 0
1234 0 8 -1.05 8.524343000000002 11.916274999999999 -8.184752000000007 0 0 0
1488 0 8 -1.05 8.598013000000002 9.796275000000001 -6.064752000000009 0 0 0
1759 0 8 -1.05 0.04434199999999855 9.722603999999997 -1.8984230000000082 0 0 0
1475 0 8 -1.05 2.1643429999999997 9.796274999999998 -4.0184219999999975 0 0 0
1702 0 8 -1.05 0.1180129999999977 5.556275 -1.8247519999999966 0 0 0
1429 0 8 -1.05 0.04434199999999855 7.676274999999998 -3.944752000000001 0 0 0
1473 0 8 -1.05 0.1180129999999977 11.842604999999999 -4.0184219999999975 0 0 0
1705 0 8 -1.05 2.1643429999999997 7.602605 -1.8247519999999966 0 0 0
1701 2 6 1.05 0.08117799999999775 7.639439999999998 -1.861587 0 0 0
1471 2 7 1.575 0.08117799999999775 9.759439999999998 -3.981587000000008 0 0 0
1763 1 7 1.575 1.1411779999999991 10.81944 -0.8015869999999978 0 0 0
1764 0 8 -1.05 2.1643429999999997 11.842604999999999 2.415247999999991 0 0 0
1699 0 8 -1.05 0.04434199999999855 5.482605 2.3415779999999913 0 0 0
1762 0 8 -1.05 0.1180129999999977 9.796274999999998 2.415247999999991 0 0 0
1640 0 8 -1.05 0.04434199999999855 3.4362749999999993 0.29524799999999374 0 0 0
1700 2 7 1.575 0.08117799999999775 5.51944 0.25841300000000444 0 0 0
1641 2 6 1.05 0.08117799999999775 3.3994399999999994 2.3784129999999877 0 0 0
1703 0 8 -1.05 0.1180129999999977 7.602605 0.22157800000000805 0 0 0
1704 0 8 -1.05 2.1643429999999997 5.556275 0.22157800000000805 0 0 0
1760 0 8 -1.05 0.04434199999999855 11.916274999999999 0.29524799999999374 0 0 0
1761 2 6 1.05 0.08117799999999775 11.879439999999999 2.3784129999999877 0 0 0
1639 0 8 -1.05 0.04434199999999855 1.2426039999999965 -1.8984230000000082 0 0 0
1391 0 8 -1.05 2.1643429999999997 1.3162749999999974 -4.0184219999999975 0 0 0
1389 0 8 -1.05 0.1180129999999977 3.3626049999999985 -4.0184219999999975 0 0 0
1387 2 7 1.575 0.08117799999999775 1.2794399999999975 -3.981587000000008 0 0 0
1643 1 7 1.575 1.1411779999999991 2.3394399999999997 -0.8015869999999978 0 0 0
1644 0 8 -1.05 2.1643429999999997 3.3626049999999985 2.415247999999991 0 0 0
1642 0 8 -1.05 0.1180129999999977 1.3162749999999974 2.415247999999991 0 0 0
1779 0 8 -1.05 8.524341999999999 9.722603999999997 -1.8984230000000082 0 0 0
1489 0 8 -1.05 10.644343 9.796274999999998 -4.0184219999999975 0 0 0
1433 0 8 -1.05 2.2380129999999996 5.482605 -3.944752000000001 0 0 0
1774 0 8 -1.05 6.404343 11.842604999999999 -1.8247519999999966 0 0 0
1722 0 8 -1.05 8.598012999999998 5.556275 -1.8247519999999966 0 0 0