LAMMPS data file via write_data, version 17 Feb 2022, timestep = 300

2970 atoms
10 atom types
72 bonds
6 bond types
108 angles
6 angle types
0 dihedrals
2 dihedral types
18 impropers
2 improper types

0 25.44 xlo xhi
0 25.44 ylo yhi
-41.458422 32.908 zlo zhi

Masses

1 12.011
2 1.008
3 15.9994
4 15.9994
5 1.008
6 55.845
7 55.845
8 15.9994
9 15.9994
10 1.008

Pair Coeffs # lj/cut/coul/long

1 0.0988 3.31521
2 0.0161 2.4473
3 0.1463 3.04812
4 0.093 3.24287
5 0.0047 0.537925
6 9.0298e-07 4.9062
7 9.0298e-07 4.9062
8 0.1554 3.16554
9 0.1554 3.16554
10 0 0

Bond Coeffs # harmonic

1 361.8 1.105
2 652.57 1.218
3 383.13 1.351
4 563.51 0.973
5 554.135 1
6 0 2.08

Angle Coeffs # harmonic

1 51.617 106.55
2 65.93 123.65
3 65.262 109.49
4 115.745 122.1
5 118.817 130.25
6 30 109.47

Dihedral Coeffs # fourier

1 1 2.3 2 180
2 2 2.3 2 180 1.9 1 0

Improper Coeffs # cvff

1 10.5 -1 2
2 10.5 -1 2

Atoms # full

3 0 7 1.575 0.14513592289159558 1.230004262667215 -29.698883085127278 0 0 0
73 0 7 1.575 4.342947950014609 5.5046971267491935 -29.709433193031817 0 0 0
7 0 7 1.575 2.24547907443903 3.36021346843793 -29.698552401788415 0 0 0
6 0 8 -1.05 2.1386186668669858 1.3406199363774716 -29.768305257934113 0 0 0
70 0 8 -1.05 2.3709957075991177 5.323978481333278 -29.762568162796743 0 0 0
4 0 8 -1.05 0.27410157036948196 3.1964209073768566 -29.712154640838666 0 0 0
11 0 8 -1.05 4.203666712843725 3.5090817529568006 -29.725586500584964 0 0 0
10 0 7 1.575 3.4566524897994872 0.2956624033197085 -28.84201817444317 0 0 0
13 0 6 1.05 4.42336142236908 3.420666953687264 -27.716754605474538 0 0 0
68 0 6 1.05 2.1763670134315114 5.529159002067385 -27.774802644388338 0 0 0
1 0 8 -1.05 0.019273051080743404 1.2715021159924242 -27.667248912995145 0 0 0
9 0 8 -1.05 2.2941909508679883 3.402554921656775 -27.65944940896778 0 0 0
64 0 8 -1.05 0.08885940357223149 5.501764273307078 -27.53636828077278 0 0 0
14 0 8 -1.05 4.564334490513965 1.3315736311542865 -27.593699198198795 0 0 0
71 0 8 -1.05 4.266885487467463 5.4693981712113064 -27.664059649108975 0 0 0
74 0 8 -1.05 4.390959184006382 7.4898618085899615 -29.790873351485164 0 0 0
61 0 8 -1.05 25.322756716111634 8.057949967197382 -30.085435236347184 -1 0 0
67 0 8 -1.05 2.1289232671906153 7.680093300754971 -27.63070582700792 0 0 0
63 0 6 1.05 0.11974720759188669 7.50006593911468 -28.18513670583793 0 0 0
76 0 8 -1.05 6.309700620157499 5.570093772004564 -29.735114746860845 0 0 0
20 0 8 -1.05 6.794634983086866 0.9747392593585846 -29.818833960813944 0 0 0
17 0 8 -1.05 6.631796356614756 3.311850451308628 -27.644193906163885 0 0 0
80 0 7 1.575 7.613985315213729 4.4298939690949934 -28.96185240079603 0 0 0
18 0 7 1.575 6.534118906811117 1.3628230448570744 -27.946600120179017 0 0 0
77 0 6 1.05 6.422056020109776 7.596196997550512 -29.966402719851924 0 0 0
79 0 8 -1.05 6.5529210884129565 7.718933470493662 -27.685307785799722 0 0 0
23 0 7 1.575 8.738456443901136 1.1832886769762267 -29.879327940731482 0 0 0
27 0 6 1.05 10.740159519260589 3.368795578247966 -30.285837854287426 0 0 0
26 0 8 -1.05 10.671796704875783 1.2832195662994017 -30.06530292135892 0 0 0
90 0 8 -1.05 10.830023472469136 5.346238785225594 -29.83695152271571 0 0 0
24 0 8 -1.05 8.746331623748734 3.16336304979768 -29.825018186651302 0 0 0
30 0 7 1.575 12.050169532154905 0.631650512793373 -28.930238382657706 0 0 0
88 0 7 1.575 10.717149574034977 5.533122939308539 -27.960314804756543 0 0 0
21 0 8 -1.05 8.637170994466338 1.2567107896790288 -27.80518565055929 0 0 0
29 0 8 -1.05 10.807319641806101 3.678718247307184 -27.071621104915664 0 0 0
84 0 8 -1.05 8.71020983930309 5.571565464749861 -27.69644141042426 0 0 0
81 0 8 -1.05 8.44467886334606 7.90767173860879 -29.754664362705558 0 0 0
87 0 8 -1.05 10.614193292738696 7.55346423060753 -27.68297468132593 0 0 0
83 0 7 1.575 8.561532516926302 7.574512019605745 -27.827083534330992 0 0 0
99 0 8 -1.05 15.022723759804773 7.680799294483143 -27.50557612954828 0 0 0
97 0 7 1.575 14.936367023756466 7.5888615981307215 -29.66128862197169 0 0 0
93 0 6 1.05 12.869881708380607 5.449724020727467 -29.914784169415245 0 0 0
31 0 8 -1.05 12.603829506967818 3.392994291679705 -29.47392544781079 0 0 0
33 0 7 1.575 12.96732701114666 3.4846716052803224 -27.605498678134317 0 0 0
34 0 8 -1.05 12.867542569181072 1.5016977970180345 -27.4157376098226 0 0 0
91 0 8 -1.05 12.667683064507472 5.475108977883287 -27.50197269873127 0 0 0
38 0 6 1.05 14.941211930746839 1.3071711665697585 -27.4791569581993 0 0 0
100 0 7 1.575 16.088104428838818 4.490406402345266 -28.70964467391973 0 0 0
37 0 8 -1.05 14.96061225006445 3.5015812463199696 -27.39381470311909 0 0 0
40 0 8 -1.05 14.93807433953789 1.031834528507769 -29.50598269149512 0 0 0
94 0 8 -1.05 12.98740146056374 7.54822648750063 -29.727916965616053 0 0 0
96 0 8 -1.05 14.872767089059883 5.63410321409911 -29.602661069339852 0 0 0
60 0 8 -1.05 23.655775880180148 0.9748131272213132 -29.794384299513855 0 0 0
116 0 8 -1.05 23.26319836954112 5.457947536574689 -29.717554350152984 0 0 0
120 0 7 1.575 24.492919191979922 4.351705081160015 -28.804976756527484 0 0 0
58 0 6 1.05 23.299748764282793 1.3328057503596493 -27.839149586511912 0 0 0
57 0 8 -1.05 23.41935153978754 3.3683332601302043 -27.46783913768472 0 0 0
117 0 6 1.05 23.382912528619187 7.48163009154593 -30.02545535160232 0 0 0
119 0 8 -1.05 23.51833494881884 7.698707997740501 -27.827225900112314 0 0 0
103 0 7 1.575 17.122444217498213 7.617851887428233 -27.62575729175258 0 0 0
107 0 8 -1.05 19.10374858497441 7.6094140736686375 -27.720530508021763 0 0 0
101 0 8 -1.05 16.87588384518825 7.707994184647035 -29.54115539485066 0 0 0
114 0 8 -1.05 21.350456279834066 7.3470354258099935 -29.916707005513082 0 0 0
111 0 8 -1.05 21.22138025241715 5.399416724844556 -27.71029551991781 0 0 0
54 0 8 -1.05 21.264063806217628 1.2119353587551327 -27.41836775754643 0 0 0
104 0 8 -1.05 17.09156851502082 5.601708103173285 -27.406741776568715 0 0 0
49 0 8 -1.05 19.200455186287353 3.4149055275517677 -27.602661038402964 0 0 0
41 0 8 -1.05 16.987032216936992 1.1813256927677265 -27.486181390402898 0 0 0
108 0 6 1.05 19.159512229572535 5.5066357491502 -27.836047987235414 0 0 0
53 0 6 1.05 21.30333482669469 3.3165736231607723 -27.704101935203212 0 0 0
50 0 7 1.575 20.194124037877923 0.13202978767172663 -28.71081463955751 0 0 0
51 0 8 -1.05 21.116191628027043 3.389198853736888 -29.70605226761533 0 0 0
44 0 8 -1.05 17.148113187816804 3.17709549591347 -29.58848994703873 0 0 0
110 0 8 -1.05 19.307436682710673 5.210154164091671 -29.813551608095914 0 0 0
46 0 8 -1.05 18.968988755681753 1.29660486889295 -29.59518669495643 0 0 0
47 0 7 1.575 19.153032627277028 3.265814719796376 -29.64496021176843 0 0 0
113 0 7 1.575 21.292477685748462 5.375639306817463 -29.764021699765184 0 0 0
43 0 7 1.575 16.976796205692814 1.2195631146490848 -29.518414419757697 0 0 0
123 0 7 1.575 0.059426635445701315 9.945785433619545 -29.825525300225763 0 0 0
127 0 6 1.05 2.111161147563451 12.093411194299582 -29.76652955313251 0 0 0
126 0 8 -1.05 2.0019339190727248 10.081390374402682 -29.575857608096083 0 0 0
124 0 8 -1.05 25.405878653701386 11.954910071685852 -29.982210879606253 -1 0 0
131 0 8 -1.05 4.470768025784299 12.006982518728751 -29.873306149433365 0 0 0
130 0 7 1.575 3.170802208458169 8.688153701203355 -28.965745864556492 0 0 0
133 0 7 1.575 4.3465115785344315 11.808503725802563 -27.958489829442314 0 0 0
121 0 8 -1.05 25.348030468955496 9.757614201274777 -27.798201248936913 -1 0 0
129 0 8 -1.05 2.457118552615612 12.036787332907329 -27.42866572624021 0 0 0
134 0 8 -1.05 4.36319603745903 9.820802200409911 -27.798809579721976 0 0 0
140 0 8 -1.05 6.638598501409122 9.934317639505547 -29.797181050948698 0 0 0
137 0 8 -1.05 6.309617780788005 11.712982161356928 -27.873316894837483 0 0 0
138 0 7 1.575 6.379143141745328 9.69112631649313 -27.804582908558427 0 0 0
193 0 6 1.05 4.3324347540101895 13.99375565436073 -29.925205570492224 0 0 0
190 0 8 -1.05 2.2688223374313665 14.11411933375553 -29.994488761274486 0 0 0
188 0 6 1.05 0.0646997778737699 14.019208507850353 -29.850469162313544 0 0 0
184 0 8 -1.05 25.343060697591827 14.065101498979265 -27.79119852340375 -1 0 0
191 0 8 -1.05 4.336926109047319 13.874236064853031 -27.77096587658141 0 0 0
194 0 8 -1.05 4.394950763366675 16.017247805345804 -29.770450171540705 0 0 0
181 0 8 -1.05 0.34764287705535324 16.08135088197716 -29.664599430906765 0 0 0
187 0 8 -1.05 1.9830464068973128 16.053055477495025 -27.49914127895565 0 0 0
183 0 7 1.575 25.37242801692675 15.993050267741696 -27.717992692586016 -1 0 0
196 0 8 -1.05 6.434049206321134 13.972214154958573 -30.105658482458068 0 0 0
200 0 7 1.575 6.540094155211187 11.993172352259439 -29.862152701417706 0 0 0
197 0 7 1.575 6.462299738846639 15.94542599022517 -29.854531794462137 0 0 0
199 0 8 -1.05 6.716970010282073 15.914119879351627 -27.85439104080362 0 0 0
143 0 7 1.575 8.62052386571916 9.833867156770683 -29.804965073938806 0 0 0
147 0 6 1.05 10.776373749189492 11.871277301887414 -30.11861434537889 0 0 0
146 0 8 -1.05 10.512480559547566 10.031842864711964 -29.285538441677783 0 0 0
144 0 8 -1.05 8.536556805921704 11.792106867089753 -30.205722951080393 0 0 0
150 0 7 1.575 11.816593244235378 8.69562296280456 -28.798680469937434 0 0 0
141 0 8 -1.05 8.380053714945543 9.641214543353975 -27.74499341651857 0 0 0
149 0 8 -1.05 11.00593189925536 12.065072624831885 -27.262831894368777 0 0 0
210 0 8 -1.05 10.911430242668633 13.903878541819584 -29.82041897225494 0 0 0
208 0 7 1.575 10.906962071791158 13.99032141082585 -27.83580519244867 0 0 0
204 0 8 -1.05 8.978987093148168 13.894213696613237 -27.935177921220156 0 0 0
201 0 8 -1.05 8.31478688101296 16.093899192690856 -30.392507317664087 0 0 0
203 0 6 1.05 8.82864733283257 14.164696514328558 -29.97046477547374 0 0 0
207 0 8 -1.05 11.106974711316456 15.908544518297122 -27.58486318438747 0 0 0
158 0 7 1.575 14.943327643819442 9.698916889103627 -27.57890106678486 0 0 0
157 0 8 -1.05 15.061344612001799 11.716333868236301 -27.51293899781314 0 0 0
160 0 8 -1.05 15.042652582346614 9.573492392127305 -29.506873009687705 0 0 0
151 0 8 -1.05 12.777556136437571 12.072779361203796 -29.873268705829783 0 0 0
153 0 6 1.05 12.989649289099868 11.762274967157191 -27.905332704853308 0 0 0
154 0 8 -1.05 12.912307761393505 9.693857717504793 -27.453035204676222 0 0 0
219 0 8 -1.05 14.91021463824715 16.121770584007812 -27.631569926877823 0 0 0
217 0 7 1.575 14.967491607658255 16.12810365244565 -29.64149537899383 0 0 0
220 0 7 1.575 15.8827028394517 12.995709071585877 -28.79340685252175 0 0 0
216 0 8 -1.05 14.89170601770691 14.1746729060731 -29.888472736235496 0 0 0
213 0 7 1.575 12.915412611901415 14.011835230171606 -29.857719557459586 0 0 0
211 0 8 -1.05 12.933499861967565 13.894414988060333 -27.786323461352133 0 0 0
214 0 8 -1.05 13.003398419466867 15.984158227413364 -29.82967526061399 0 0 0
180 0 8 -1.05 23.511473007029853 10.086777245746894 -29.757645728033175 0 0 0
178 0 7 1.575 23.33914366873496 9.646597892001877 -27.803846701499978 0 0 0
177 0 8 -1.05 23.058171245630025 11.685244130176317 -27.691167342192657 0 0 0
174 0 8 -1.05 21.291664156114717 9.682351742656573 -27.828348447324398 0 0 0
169 0 8 -1.05 19.384930911030086 11.507701667795773 -26.907057269653876 0 0 0
161 0 8 -1.05 16.925649703508377 9.593509648846764 -27.397174859646988 0 0 0
173 0 7 1.575 21.06854230156871 11.683160044187838 -27.921153408938256 0 0 0
170 0 7 1.575 20.160212379198196 8.556928732511667 -29.066968876663854 0 0 0
171 0 8 -1.05 21.32906982050875 12.144714035735257 -29.75312859735717 0 0 0
164 0 8 -1.05 17.355269775281375 11.816942483658877 -29.121540117981933 0 0 0
166 0 8 -1.05 19.129143485413444 9.89640001375996 -29.929850329556025 0 0 0
167 0 6 1.05 19.143832877265318 11.851455174432397 -30.316562625476003 0 0 0
163 0 6 1.05 17.11487485636334 9.731530975624779 -29.76531934860225 0 0 0
223 0 6 1.05 17.0314102605876 16.083084814793157 -27.551487010907895 0 0 0
227 0 8 -1.05 19.108518809997463 16.33971749010102 -27.449854683145563 0 0 0
236 0 8 -1.05 23.33704799165047 13.986514420205074 -30.13432669547233 0 0 0
240 0 7 1.575 23.377605546696007 12.062784313121194 -29.651495563497967 0 0 0
221 0 8 -1.05 16.9851018913893 16.271911761653403 -29.64446117985334 0 0 0
234 0 8 -1.05 20.90206030109738 15.85506732101293 -29.69492755655451 0 0 0
237 0 6 1.05 22.982055540696177 15.940371042998175 -29.665700338811785 0 0 0
239 0 8 -1.05 23.3628835250816 16.071146292292962 -27.52418325017724 0 0 0
231 0 8 -1.05 21.12933092253379 13.478936884818133 -26.93527939579479 0 0 0
224 0 8 -1.05 16.832727484308716 13.9861598895894 -27.392504456663744 0 0 0
228 0 6 1.05 18.798176883576556 15.463781184347269 -30.03453226534449 0 0 0
230 0 8 -1.05 19.27328596064444 13.75494273943979 -30.85386574965231 0 0 0
233 0 6 1.05 21.233278862329037 14.002358800866878 -30.529965720215696 0 0 0
301 0 8 -1.05 0.019268505311012703 24.575359878582717 -29.705449772268697 0 0 0
314 0 8 -1.05 4.654207874391866 24.287226655919376 -29.160161662258833 0 0 0
303 0 6 1.05 25.435021706974574 24.719128131479977 -27.581667606716852 -1 0 0
307 0 8 -1.05 2.0895704544040745 24.602804962920708 -27.922314480701626 0 0 0
243 0 6 1.05 0.05203526808060843 18.16880188422299 -29.850417359455935 0 0 0
313 0 6 1.05 4.459753047531612 22.194601256147944 -29.273818683495442 0 0 0
247 0 6 1.05 2.3293847261199008 20.21286131568878 -29.394774408184464 0 0 0
246 0 8 -1.05 2.359821252586239 17.994657172797872 -29.324068590050306 0 0 0
310 0 8 -1.05 2.593638460451551 22.129358312273922 -29.9718519980488 0 0 0
244 0 8 -1.05 0.30234100420512183 20.15297568128284 -29.77144473238729 0 0 0
251 0 8 -1.05 4.446155386035677 20.138996329581214 -28.923057517171536 0 0 0
250 0 7 1.575 2.360962497131326 15.999873979796378 -29.465693492063245 0 0 0
253 0 6 1.05 4.442907844110739 18.185095602405525 -29.352310840698323 0 0 0
308 0 7 1.575 1.3584155144712504 23.282090703260167 -29.189087788855932 0 0 0
241 0 8 -1.05 25.407814750810022 17.93193871390476 -27.562038396391216 -1 0 0
249 0 8 -1.05 2.050645465584993 20.068318864458355 -27.35524034576499 0 0 0
304 0 8 -1.05 0.11285738473821244 22.517953105865924 -27.82737652829399 0 0 0
254 0 8 -1.05 4.618660426342614 17.498584317120304 -27.343949999156692 0 0 0
311 0 8 -1.05 4.080684269798107 22.33377105978225 -27.184863299440877 0 0 0
317 0 6 1.05 6.634672018951349 24.369752360819255 -29.60400622954511 0 0 0
319 0 8 -1.05 6.820394491553188 24.879146343494075 -27.50651241700282 0 0 0
316 0 8 -1.05 6.480577546124777 22.34147731478787 -28.595278811748777 0 0 0
260 0 8 -1.05 6.454474502350988 17.921353157993636 -29.52592137726503 0 0 0
258 0 7 1.575 6.822751038934042 18.007192306368633 -27.583033562149645 0 0 0
257 0 8 -1.05 7.330505072132561 19.92614642113843 -27.377409812139657 0 0 0
320 0 7 1.575 8.092322193613288 21.300027635152077 -28.525454866322875 0 0 0
321 0 8 -1.05 8.732268087154523 24.586024091869895 -29.603448322277373 0 0 0
323 0 7 1.575 8.799097383572589 24.676995878503387 -27.64898927039777 0 0 0
327 0 8 -1.05 10.837541837918032 24.896380568183044 -27.671128749207718 0 0 0
263 0 6 1.05 8.48980792747043 18.055100679055606 -29.795924626556452 0 0 0
267 0 6 1.05 10.623526353630023 20.250052390415203 -30.5832456239678 0 0 0
266 0 8 -1.05 8.782801926181143 17.782911297514204 -27.745988268745645 0 0 0
330 0 8 -1.05 11.76255172671105 21.652220562026056 -29.657606233332135 0 0 0
324 0 8 -1.05 9.310918071903625 22.63963648068261 -27.66515941580652 0 0 0
264 0 8 -1.05 8.819896205218564 20.129068904422112 -29.858260457092086 0 0 0
269 0 8 -1.05 10.885460737523644 20.20240364421562 -27.34239994787697 0 0 0
261 0 8 -1.05 8.765024796588145 16.00438717633381 -25.319158451540122 0 0 0
328 0 7 1.575 11.174069025751582 23.119279586050173 -28.46780569150913 0 0 0
270 0 7 1.575 11.920612543353164 17.171564892595296 -28.78789848312761 0 0 0
278 0 6 1.05 14.878146822460314 18.23418514755393 -27.578968741027673 0 0 0
340 0 7 1.575 15.950313480176547 21.4739361391204 -28.795822722489046 0 0 0
277 0 8 -1.05 14.458586821083186 20.51952674088467 -27.834458029055256 0 0 0
280 0 8 -1.05 15.075167630190348 18.08507777347954 -29.628791473414875 0 0 0
336 0 8 -1.05 14.851169541371803 22.62481865837015 -29.858259992503555 0 0 0
334 0 8 -1.05 12.76648808351479 24.34572627344031 -29.522378343053006 0 0 0
339 0 8 -1.05 14.89098875632228 24.553508657688884 -27.47079263580728 0 0 0
337 0 7 1.575 14.882584499281348 24.531343653037787 -29.438196248224333 0 0 0
333 0 6 1.05 13.08654798366386 22.71964850861497 -30.697681231430636 0 0 0
331 0 8 -1.05 12.269629543152574 22.540802640967502 -26.958502079779432 0 0 0
274 0 8 -1.05 12.840567762973713 18.29151958299712 -27.41812484844629 0 0 0
271 0 8 -1.05 11.67983550327133 18.828452980333093 -29.745749068536472 0 0 0
273 0 7 1.575 12.547837443306808 20.044296867882913 -28.420216449507144 0 0 0
357 0 7 1.575 23.380384177280323 24.495945974898248 -29.65018606751784 0 0 0
359 0 8 -1.05 23.421842867880166 24.632788104506716 -27.62815686966347 0 0 0
351 0 8 -1.05 21.234365920324368 22.34783143251373 -27.55160072925426 0 0 0
294 0 8 -1.05 21.463406627495942 18.226252068364023 -27.400079783554673 0 0 0
344 0 8 -1.05 16.96159138275279 22.397901251171696 -27.38843958932043 0 0 0
289 0 8 -1.05 19.195916160769475 20.292734313437485 -27.533416498771473 0 0 0
281 0 8 -1.05 16.929034973620265 18.242657844595623 -27.529429677330402 0 0 0
348 0 6 1.05 19.09594355874627 22.452511171106064 -27.631503339370695 0 0 0
293 0 6 1.05 21.284785973206446 20.28725794812851 -27.57795182769994 0 0 0
290 0 7 1.575 20.297508046751762 17.34246518197063 -28.63450671912152 0 0 0
291 0 8 -1.05 21.10886847917114 20.40510878677501 -29.59985107762749 0 0 0
284 0 8 -1.05 17.148444841126608 20.224326108263767 -29.609621730865552 0 0 0
350 0 8 -1.05 19.314913081863494 22.250221293904932 -29.628716402195877 0 0 0
286 0 8 -1.05 18.99358066386394 18.31251755316254 -29.660341908648274 0 0 0
287 0 7 1.575 19.1373979882757 20.312496314782937 -29.56846325940928 0 0 0
353 0 7 1.575 21.274808431059657 22.386950600758205 -29.58076973608318 0 0 0
283 0 7 1.575 17.01912707192219 18.275948588153224 -29.51938147339494 0 0 0
300 0 8 -1.05 23.510827861701507 17.85450101061392 -29.568086998284453 0 0 0
356 0 8 -1.05 23.27883812578226 22.508313665991558 -29.679845237723743 0 0 0
360 0 7 1.575 24.42974651172416 21.187299345079943 -28.877570096280113 0 0 0
298 0 7 1.575 23.43309674918343 18.184729662220615 -27.655673657465567 0 0 0
297 0 8 -1.05 23.425277079509502 20.19947739878386 -27.533973543548687 0 0 0
347 0 8 -1.05 19.1789331294255 24.527059051638847 -27.365311345990218 0 0 0
343 0 6 1.05 17.087606245490637 24.520609634482792 -27.565370890394927 0 0 0
354 0 8 -1.05 21.407583963935146 24.37015494384544 -29.591779888075024 0 0 0
341 0 8 -1.05 16.817131093570566 24.70836271245938 -29.554730326019175 0 0 0
75 0 7 1.575 5.41678084661461 6.581432123015623 -26.665041615546894 0 0 0
5 0 7 1.575 1.1516936701457747 2.3438092113755395 -26.578295578001924 0 0 0
66 0 8 -1.05 2.1210490567642495 5.669720327718892 -25.44158766406692 0 0 0
15 0 8 -1.05 4.424807631357478 3.276174036465555 -25.495005452411963 0 0 0
405 0 7 1.575 1.2937554939451477 6.607452287058597 -22.48439175129103 0 0 0
371 0 7 1.575 5.3438187001533395 2.294795979486513 -22.387292540673474 0 0 0
408 0 7 1.575 3.32773504015988 4.491174761671627 -24.526387329560027 0 0 0
361 0 6 1.05 7.494032165053299e-05 1.3828533824749292 -21.410335070834343 0 0 0
409 0 6 1.05 4.3770695224874 5.526254440382607 -21.31538225958788 0 0 0
362 0 6 1.05 0.1063223463836509 3.43300763958757 -23.403305639360433 0 0 0
367 0 7 1.575 2.2182160706474754 1.2256609263496254 -23.508046309803245 0 0 0
12 0 7 1.575 4.427925169738872 1.2865367576310656 -25.622523158379142 0 0 0
62 0 7 1.575 0.1023565062492402 5.547442675273038 -25.5621429745443 0 0 0
368 0 7 1.575 2.2714906155359946 3.345113582858023 -21.32070801253616 0 0 0
365 0 8 -1.05 2.117833435287584 1.3495728474088846 -21.40586699767091 0 0 0
406 0 8 -1.05 2.2375651861404884 5.472204523126627 -21.18248938162464 0 0 0
411 0 8 -1.05 4.458165930090645 5.596904821720117 -23.347828851193754 0 0 0
366 0 8 -1.05 2.2731632219240447 3.3368877612958596 -23.306223887602684 0 0 0
369 0 8 -1.05 4.2172025685113 1.1900298984165383 -23.489570636966956 0 0 0
364 0 8 -1.05 0.2704562383580907 3.3899459634976647 -21.178790840546498 0 0 0
370 0 8 -1.05 4.257434257907952 3.420540801209749 -21.194901732098998 0 0 0
8 0 8 -1.05 2.3215359809757445 1.2131365946420607 -25.46966882276996 0 0 0
403 0 8 -1.05 0.06175570297646092 5.508503524431352 -23.421329162442355 0 0 0
2 0 8 -1.05 0.059280375932966166 3.4857279387468854 -25.435762301048122 0 0 0
363 0 8 -1.05 0.23444329126585678 1.2995788278405764 -23.421142776793268 0 0 0
618 0 7 1.575 2.176159086003043 24.857089968050506 -21.16334749098841 0 -1 0
65 0 8 -1.05 0.23024131893856972 7.567141286633449 -25.336184185221818 0 0 0
412 0 8 -1.05 4.575404606746933 7.7636091297387155 -21.00292314921628 0 0 0
69 0 7 1.575 2.2115426761643384 7.673896117939976 -25.688373774560134 0 0 0
410 0 6 1.05 4.441415241042658 7.6699810323347934 -23.608877822280956 0 0 0
72 0 8 -1.05 4.233523874158 7.711225071539508 -25.597772642364795 0 0 0
404 0 8 -1.05 0.16630859579682433 7.760567976061123 -21.330245357589725 0 0 0
407 0 8 -1.05 2.393346242158648 7.819485403410525 -23.472963311275524 0 0 0
16 0 8 -1.05 6.4315939217742075 1.3856651797006365 -25.392811307990534 0 0 0
413 0 8 -1.05 6.446855923347716 5.753331004604465 -21.30838217166446 0 0 0
374 0 7 1.575 7.595744984300711 0.1611851340695597 -24.480429783357657 0 0 0
415 0 7 1.575 6.5155164914313 5.562612335628465 -23.422876175429657 0 0 0
19 0 6 1.05 6.502782751921655 3.4536879895712627 -25.612172194225835 0 0 0
373 0 8 -1.05 6.535988292416117 3.557000540578027 -23.232255446070813 0 0 0
78 0 8 -1.05 6.4837954227797265 5.553338017699705 -25.38570626932067 0 0 0
372 0 8 -1.05 6.460688731920167 1.2445082095145699 -21.18080598130447 0 0 0
668 0 7 1.575 7.504433995427036 4.569037785789494 -20.230859572349505 0 0 0
414 0 8 -1.05 6.497374636021034 7.622111214991256 -23.369001945329128 0 0 0
416 0 7 1.575 6.59643679209265 7.714556359407738 -21.440847386075397 0 0 0
25 0 7 1.575 9.54986821750488 2.3177279032796836 -26.563338506782326 0 0 0
86 0 8 -1.05 10.590187610476614 5.633187429810336 -25.08782604708175 0 0 0
419 0 7 1.575 10.524095820797159 5.742050941937538 -23.125072771747526 0 0 0
422 0 7 1.575 11.230748686080284 3.7984935446721386 -25.11250735569082 0 0 0
375 0 6 1.05 8.615396795905339 1.2454505058419176 -21.26951002777786 0 0 0
376 0 7 1.575 8.513344591787751 3.392619787416971 -23.29429582384319 0 0 0
381 0 7 1.575 10.73011782886405 1.3212628329346594 -23.217594722832686 0 0 0
82 0 6 1.05 8.550304107481933 5.569670736038774 -25.626508216719053 0 0 0
382 0 6 1.05 10.728368847357386 3.4581182130277446 -21.142027830700698 0 0 0
379 0 8 -1.05 10.68762129412999 1.438468218553276 -21.180511943897294 0 0 0
420 0 8 -1.05 10.828092698948508 5.628879022305252 -21.052353729516366 0 0 0
380 0 8 -1.05 10.56582442775775 3.5651973706092663 -23.214085136255648 0 0 0
378 0 8 -1.05 8.605574809324532 3.3606618561764754 -21.220308237883838 0 0 0
28 0 8 -1.05 10.820537693167475 1.7089943149514804 -25.169793383003423 0 0 0
417 0 8 -1.05 8.527947163301848 5.411100609195321 -23.26352691210634 0 0 0
22 0 8 -1.05 8.62204589460889 3.4671995684418304 -25.281920643206103 0 0 0
377 0 8 -1.05 8.688714817531737 1.3862404668573398 -23.31408203470081 0 0 0
632 0 7 1.575 11.71819525144598 0.20551996761718136 -20.131762168520485 0 0 0
85 0 8 -1.05 8.645477972128878 7.663628904638644 -25.690514266913873 0 0 0
89 0 6 1.05 10.734952616165417 7.612000454918568 -25.64855565368137 0 0 0
418 0 8 -1.05 8.462576060450345 7.885502384594364 -20.911207340532247 0 0 0
421 0 8 -1.05 10.749556952055471 7.71784390526169 -23.020852800188134 0 0 0
430 0 7 1.575 14.862873524350068 7.691007758229104 -21.122273498301094 0 0 0
428 0 8 -1.05 14.974024777644642 7.721842780204814 -23.103421969495443 0 0 0
95 0 7 1.575 13.893941347206017 6.519441943846236 -26.480165281418085 0 0 0
35 0 8 -1.05 13.062196754497508 3.443839648676122 -25.461034023442483 0 0 0
385 0 7 1.575 13.929334645874151 2.429987206680798 -22.225276454009606 0 0 0
423 0 7 1.575 12.874907336329677 5.533969962520465 -21.103192810437065 0 0 0
32 0 6 1.05 12.933090975958816 1.3241985226243993 -25.39461583445678 0 0 0
425 0 8 -1.05 12.6779601642629 5.647051848497646 -23.03515161676786 0 0 0
383 0 8 -1.05 12.761813689149722 1.2649986088974465 -23.17862027843634 0 0 0
384 0 8 -1.05 12.871845918561146 3.5619093694739705 -21.04282893873812 0 0 0
682 0 7 1.575 15.978268144373203 4.451715978039173 -20.036196079886622 0 0 0
386 0 8 -1.05 15.072480737535013 1.34717774618119 -21.06118945928312 0 0 0
98 0 8 -1.05 15.096150302046716 5.504896291928427 -25.32697897317358 0 0 0
387 0 8 -1.05 15.062562304199263 3.5258420297563986 -23.289343530465253 0 0 0
39 0 7 1.575 15.03488697731229 3.4600169778037277 -25.38215424548886 0 0 0
429 0 6 1.05 14.916202437926515 5.582726790899302 -23.304098974735936 0 0 0
388 0 7 1.575 16.052887026184795 0.22395402053314342 -24.334251986957014 0 0 0
427 0 8 -1.05 14.860417352995539 5.667502329206138 -21.03285950471888 0 0 0
36 0 8 -1.05 14.988835313466542 1.4638001562159715 -25.305917085083994 0 0 0
426 0 8 -1.05 12.850368604382263 7.5524708129322375 -21.103679873789822 0 0 0
424 0 6 1.05 12.898158205155452 7.648852750986841 -23.36386464631245 0 0 0
92 0 8 -1.05 12.799314092476767 7.72024405531818 -25.385495355848047 0 0 0
402 0 7 1.575 24.515440768747386 0.1398605248434932 -24.47475395774944 0 0 0
443 0 6 1.05 23.401882163225302 5.612632459724833 -23.450719222531212 0 0 0
59 0 7 1.575 23.45314547579871 3.3701511662691477 -25.50797788712982 0 0 0
401 0 8 -1.05 23.461960258582117 3.514845977046032 -23.31833835054107 0 0 0
118 0 8 -1.05 23.542511697454614 5.400771639272987 -25.473404940278364 0 0 0
400 0 8 -1.05 23.400528489511625 1.2518927684915009 -21.1234329663732 0 0 0
56 0 8 -1.05 23.327343265165965 1.363487448863514 -25.351764342889176 0 0 0
441 0 8 -1.05 23.43194341607385 5.8303004685075255 -21.17615833996016 0 0 0
696 0 7 1.575 24.482122361333502 4.519969767998361 -20.27178957339469 0 0 0
444 0 7 1.575 23.54762984743904 7.812146128993675 -21.417402744873584 0 0 0
442 0 8 -1.05 23.273029296991037 7.827548126007289 -23.305134651404344 0 0 0
435 0 8 -1.05 19.674198991472498 7.747675035745693 -22.0753852668739 0 0 0
432 0 8 -1.05 16.9518549329245 7.782695454810675 -21.024264703804143 0 0 0
112 0 8 -1.05 21.493305703594526 7.440681014419352 -25.53453467827566 0 0 0
438 0 7 1.575 21.249968442268493 7.8254680104585415 -23.631975547009613 0 0 0
109 0 6 1.05 19.34476256741663 7.49097769053343 -25.785192055123797 0 0 0
440 0 8 -1.05 21.989661435849975 7.769357890908205 -20.099085827018072 0 0 0
105 0 8 -1.05 17.19057105538416 7.533447674323593 -25.449889684320535 0 0 0
646 0 7 1.575 20.249717448462466 0.24492560110147168 -20.05736726470624 0 0 0
391 0 8 -1.05 17.10498125259791 1.3128907710373452 -23.098692710269273 0 0 0
42 0 8 -1.05 17.053887348574428 3.506954221529264 -25.334854465532956 0 0 0
431 0 8 -1.05 17.06488817449478 5.563077423585528 -23.25633448096133 0 0 0
48 0 8 -1.05 19.237408027751076 1.185908880214646 -25.343306915639175 0 0 0
398 0 8 -1.05 21.262711531948014 3.4252301216550425 -20.997818191648733 0 0 0
392 0 8 -1.05 17.195709517532755 3.3164639528360915 -20.99317698932595 0 0 0
397 0 8 -1.05 21.239758254136923 1.2193178389052701 -23.341257582336947 0 0 0
394 0 8 -1.05 19.26759840988901 3.4207929115752513 -23.090917224658064 0 0 0
439 0 8 -1.05 21.301968288283312 5.791075055904997 -23.215922371577047 0 0 0
434 0 8 -1.05 19.190312171824345 5.345492789799635 -20.95080905782663 0 0 0
393 0 8 -1.05 19.092767783706417 1.415458933383859 -21.027437954002895 0 0 0
396 0 7 1.575 19.208809618684004 3.395945954015401 -21.138048688908203 0 0 0
102 0 7 1.575 17.12523279697752 5.53333962964154 -25.41048772195663 0 0 0
52 0 7 1.575 21.29373401848221 1.253087368648888 -25.449929839673864 0 0 0
395 0 6 1.05 19.18209301385774 1.2812983758981678 -23.305621966730367 0 0 0
390 0 6 1.05 17.13945124751302 3.4499075599598115 -23.294390428144972 0 0 0
437 0 6 1.05 21.29147897556035 5.5700301155770715 -21.202090894635298 0 0 0
389 0 7 1.575 17.062179541716127 1.3089922410712589 -21.144164391866763 0 0 0
436 0 7 1.575 20.33838443339378 4.488252798780517 -24.35663648856756 0 0 0
399 0 7 1.575 22.322986124252242 2.374690354033079 -22.304178037803048 0 0 0
433 0 7 1.575 18.14425719286907 6.564214734065712 -22.053188282107588 0 0 0
55 0 8 -1.05 21.44100395774623 3.272662198441536 -25.336852444209995 0 0 0
106 0 8 -1.05 19.08933328262944 5.572250670045297 -25.266306523247298 0 0 0
45 0 7 1.575 18.129290635548006 2.329028281953324 -26.479376553026487 0 0 0
115 0 7 1.575 22.53070766198648 6.4314733717286945 -26.808971570482942 0 0 0
125 0 7 1.575 1.1366885758405925 10.793404557027596 -26.795145780982857 0 0 0
135 0 8 -1.05 4.435077251377676 11.966587446876515 -25.612177735097298 0 0 0
455 0 7 1.575 4.61892185353692 11.93970741425488 -23.65947521710792 0 0 0
445 0 7 1.575 0.3877792345831228 9.790715836219414 -21.395504925908604 0 0 0
446 0 6 1.05 0.8322745387742179 12.372462001066575 -23.99097594997905 0 0 0
451 0 7 1.575 2.3249351203494806 9.788934786509031 -23.55849569288269 0 0 0
132 0 6 1.05 4.347132160988886 9.798351449417856 -25.759946636489516 0 0 0
452 0 6 1.05 2.2703710272789825 11.98219191335144 -21.42842693024944 0 0 0
449 0 8 -1.05 2.354499176447307 9.881083314084457 -21.406462780259446 0 0 0
450 0 8 -1.05 2.5967373666454088 11.746560514417997 -23.37293266672943 0 0 0
453 0 8 -1.05 4.356014599275163 9.82124248732433 -23.307288003604896 0 0 0
448 0 8 -1.05 0.31543710359457433 11.710236989832822 -20.73691448618084 0 0 0
454 0 8 -1.05 4.334023345877465 11.870580682695048 -21.089579308330254 0 0 0
128 0 8 -1.05 2.230871524496757 9.725701257581578 -25.51310102179045 0 0 0
122 0 8 -1.05 25.37560317259205 11.855446982404077 -25.669419405759715 -1 0 0