LAMMPS data file via write_data, version 29 Sep 2021, timestep = 3663262

1332 atoms
10 atom types
180 bonds
6 bond types
324 angles
6 angle types
0 dihedrals
2 dihedral types
36 impropers
2 improper types

0 25.44 xlo xhi
0 25.44 ylo yhi
35.929417 100.267417 zlo zhi

Masses

1 12.011
2 1.008
3 15.9994
4 15.9994
5 1.008
6 55.845
7 55.845
8 15.9994
9 15.9994
10 1.008

Pair Coeffs # lj/cut/coul/long

1 0.0988 3.31521
2 0.0161 2.4473
3 0.1463 3.04812
4 0.093 3.24287
5 0.0047 0.537925
6 9.0298e-07 4.9062
7 9.0298e-07 4.9062
8 0.1554 3.16554
9 0.1554 3.16554
10 0 0

Bond Coeffs # harmonic

1 361.8 1.105
2 652.57 1.218
3 383.13 1.351
4 563.51 0.973
5 554.135 1
6 0 2.08

Angle Coeffs # harmonic

1 51.617 106.55
2 65.93 123.65
3 65.262 109.49
4 115.745 122.1
5 118.817 130.25
6 30 109.47

Dihedral Coeffs # fourier

1 1 2.3 2 180
2 2 2.3 2 180 1.9 1 0

Improper Coeffs # cvff

1 10.5 -1 2
2 10.5 -1 2

Atoms # full

20 0 1 0.731 3.0653929811551546 7.882952928465395 57.14389989808712 0 0 0
19 0 2 -0.123 3.1446605350773593 7.800827954351748 56.05116180503829 0 0 0
1048 0 1 0.731 7.317085288260933 3.6439400399799684 57.144750553146835 0 1 0
1047 0 2 -0.123 7.408719897920579 3.5523266287908304 56.05376433538199 0 1 0
168 0 1 0.731 11.548430494137321 7.885741750166597 57.14454661933503 0 0 0
167 0 2 -0.123 11.633100120981867 7.799661760682136 56.05256176081596 0 0 0
160 0 1 0.731 7.307644676312365 12.12154840787264 57.14438847872689 0 0 0
159 0 2 -0.123 7.391118872630118 12.035476548815035 56.05229675400849 0 0 0
16 0 8 -1.05 0.04434199999999855 2.4362749999999993 59.655252 0 0 0
17 2 7 1.575 0.08117799999999864 4.51944 59.618416999999994 0 0 0
155 0 3 -0.804 12.263562430503193 8.692053423375855 57.733909855508095 0 0 0
21 0 8 -1.05 2.1643429999999997 4.556275 59.581582000000004 0 0 0
18 0 3 -0.804 2.2583789426466128 7.169535507943307 57.73454460942118 0 0 0
789 2 7 1.575 11.741178000000001 11.939440000000001 60.678416999999996 0 0 0
3 0 9 -0.975 0.16717867686736135 6.552837945996708 59.57074069518881 0 0 0
156 0 8 -1.05 4.284343000000001 6.676274999999998 59.655252 0 0 0
163 0 9 -0.975 6.531373186656249 4.428900734939703 59.87707193800989 0 0 0
153 2 7 1.575 2.2011779999999996 6.639439999999998 59.618416999999994 0 0 0
162 2 7 1.575 6.441177999999999 2.3994399999999994 59.618416999999994 0 0 0
176 2 7 1.575 7.5011779999999995 7.69944 60.678416999999996 0 0 0
197 2 7 1.575 3.261178 3.45944 60.678416999999996 0 0 0
150 0 10 0.425 8.427325985635404 6.773077331546035 58.569092503063224 0 0 0
172 0 10 0.425 5.954043828585438 5.006171990140095 59.224330835163656 0 0 0
1042 0 9 -0.975 2.2913127184360595 0.18925643342067525 59.87717327550146 0 1 0
1046 2 7 1.575 4.321178000000001 0.27943999999999747 59.618416999999994 0 1 0
1037 0 8 -1.05 6.404343 0.3162749999999974 59.581582000000004 0 1 0
1059 0 9 -0.975 4.407551242402358 2.3132498041270955 59.57021671806241 0 1 0
1045 0 3 -0.804 6.507174867759606 2.932506174138224 57.73394726380678 0 1 0
1058 0 10 0.425 4.187268057207203 2.5334725952452453 58.56871233855001 0 1 0
1040 0 10 0.425 1.7137913986859477 0.7668286869199397 59.22490216582703 0 1 0
164 0 8 -1.05 8.524341999999999 2.4362749999999993 59.655252 0 0 0
165 2 7 1.575 8.561177999999998 4.51944 59.618416999999994 0 0 0
151 0 9 -0.975 8.647199866838108 6.552821102561625 59.57071522490468 0 0 0
169 0 8 -1.05 10.644343 4.556275 59.581582000000004 0 0 0
166 0 3 -0.804 10.740576477115566 7.173178117261321 57.73459350966562 0 0 0
1049 0 3 -0.804 8.027539735393498 4.4539205854824955 57.734068027183355 0 1 0
301 2 7 1.575 10.681178 6.639439999999998 59.618416999999994 0 0 0
345 2 7 1.575 11.741178000000001 3.45944 60.678416999999996 0 0 0
1190 0 9 -0.975 10.771302603434764 0.18935151956229712 59.87731733376884 0 1 0
1206 0 10 0.425 12.667904400510318 2.533278603325468 58.569347740022344 0 1 0
1188 0 10 0.425 10.193988580238022 0.7670219171206982 59.22494007220016 0 1 0
7 0 3 -0.804 3.783269210253054 8.68641453414699 57.73330207895917 0 0 0
460 0 8 -1.05 0.04434199999999855 10.916274999999999 59.655252 0 0 0
154 0 9 -0.975 2.291356247336951 8.668937627588077 59.87711273416848 0 0 0
158 2 7 1.575 4.321178000000001 8.759439999999998 59.618416999999994 0 0 0
149 0 8 -1.05 6.404343 8.796274999999998 59.581582000000004 0 0 0
171 0 9 -0.975 4.406632922427151 10.792481538995835 59.56990567760489 0 0 0
157 0 3 -0.804 6.499021851644644 11.410157895698232 57.73473478761003 0 0 0
170 0 10 0.425 4.187102119195081 11.013372802806055 58.56837087941755 0 0 0
152 0 10 0.425 1.713805283975241 9.24585084683379 59.22436455087888 0 0 0
606 2 7 1.575 6.441177999999999 10.879439999999999 59.618416999999994 0 0 0
641 2 7 1.575 3.261178 11.939440000000001 60.678416999999996 0 0 0
608 0 8 -1.05 8.524341999999999 10.916274999999999 59.655252 0 0 0
302 0 9 -0.975 10.771324626263818 8.669245941333505 59.87745692819987 0 0 0
318 0 10 0.425 12.666847355595346 11.013194115452826 58.56826111870514 0 0 0
300 0 10 0.425 10.193741988122039 9.246331247275625 59.22478057541445 0 0 0
1043 0 3 -0.804 12.268832369957648 0.22102617595006857 57.7345805842184 0 1 0
895 0 3 -0.804 3.7877658434406465 0.2155826152380263 57.73420678756471 0 1 0
29 0 8 -1.05 0.04434199999999855 6.676274999999998 63.89525199999999 0 0 0
42 0 8 -1.05 0.04434199999999855 4.482605 61.701581999999995 0 0 0
43 2 7 1.575 0.08117799999999864 2.3994399999999994 61.73841699999999 0 0 0
45 1 7 1.575 1.1411779999999991 5.57944 62.798417 0 0 0
920 0 8 -1.05 2.1643429999999997 0.3162749999999974 63.82158199999999 0 1 0
934 0 8 -1.05 2.1643429999999997 2.3626049999999985 61.775251999999995 0 1 0
932 0 8 -1.05 0.11801299999999859 2.3626049999999985 63.82158199999999 0 1 0
919 0 8 -1.05 0.11801299999999859 0.3162749999999974 61.775251999999995 0 1 0
918 2 6 1.05 0.08117799999999864 0.27943999999999747 63.858416999999996 0 1 0
200 0 8 -1.05 4.358013000000001 4.556275 61.775251999999995 0 0 0
196 0 8 -1.05 2.2380129999999996 4.482605 63.89525199999999 0 0 0
189 0 8 -1.05 6.478012999999999 2.4362749999999993 61.701581999999995 0 0 0
185 0 8 -1.05 4.358013000000001 6.602605 63.82158199999999 0 0 0
198 0 8 -1.05 4.284343000000001 2.4362749999999993 63.89525199999999 0 0 0
173 0 8 -1.05 6.404343 6.602605 61.775251999999995 0 0 0
182 0 8 -1.05 2.2380129999999996 6.676274999999998 61.701581999999995 0 0 0
187 0 8 -1.05 6.404343 4.556275 63.82158199999999 0 0 0
174 2 6 1.05 6.441177999999999 6.639439999999998 63.858416999999996 0 0 0
195 2 6 1.05 2.2011779999999996 2.3994399999999994 63.858416999999996 0 0 0
188 2 7 1.575 6.441177999999999 4.51944 61.73841699999999 0 0 0
184 2 7 1.575 4.321178000000001 6.639439999999998 61.73841699999999 0 0 0
199 2 6 1.05 4.321178000000001 4.51944 63.858416999999996 0 0 0
1071 0 8 -1.05 4.284343000000001 0.2426039999999965 61.701581999999995 0 1 0
1063 0 8 -1.05 6.478012999999999 0.2426039999999965 63.89525199999999 0 1 0
1069 2 7 1.575 2.2011779999999996 0.27943999999999747 61.73841699999999 0 1 0
1074 1 7 1.575 5.381178 1.3394399999999997 62.798417 0 1 0
177 0 8 -1.05 8.524341999999999 6.676274999999998 63.89525199999999 0 0 0
190 0 8 -1.05 8.524341999999999 4.482605 61.701581999999995 0 0 0
191 2 7 1.575 8.561177999999998 2.3994399999999994 61.73841699999999 0 0 0
193 1 7 1.575 9.621178 5.57944 62.798417 0 0 0
1068 0 8 -1.05 10.644343 0.3162749999999974 63.82158199999999 0 1 0
1082 0 8 -1.05 10.644343 2.3626049999999985 61.775251999999995 0 1 0
1080 0 8 -1.05 8.598012999999998 2.3626049999999985 63.82158199999999 0 1 0
1067 0 8 -1.05 8.598012999999998 0.3162749999999974 61.775251999999995 0 1 0
1066 2 6 1.05 8.561177999999998 0.27943999999999747 63.858416999999996 0 1 0
344 0 8 -1.05 10.718013 4.482605 63.89525199999999 0 0 0
330 0 8 -1.05 10.718013 6.676274999999998 61.701581999999995 0 0 0
343 2 6 1.05 10.681178 2.3994399999999994 63.858416999999996 0 0 0
1217 2 7 1.575 10.681178 0.27943999999999747 61.73841699999999 0 1 0
32 0 8 -1.05 2.1643429999999997 8.796274999999998 63.82158199999999 0 0 0
46 0 8 -1.05 2.1643429999999997 10.842604999999999 61.775251999999995 0 0 0
44 0 8 -1.05 0.11801299999999859 10.842604999999999 63.82158199999999 0 0 0
31 0 8 -1.05 0.11801299999999859 8.796274999999998 61.775251999999995 0 0 0
30 2 6 1.05 0.08117799999999864 8.759439999999998 63.858416999999996 0 0 0
487 2 7 1.575 0.08117799999999864 10.879439999999999 61.73841699999999 0 0 0
183 0 8 -1.05 4.284343000000001 8.722603999999997 61.701581999999995 0 0 0
175 0 8 -1.05 6.478012999999999 8.722603999999997 63.89525199999999 0 0 0
181 2 7 1.575 2.2011779999999996 8.759439999999998 61.73841699999999 0 0 0
186 1 7 1.575 5.381178 9.81944 62.798417 0 0 0
633 0 8 -1.05 6.478012999999999 10.916274999999999 61.701581999999995 0 0 0
642 0 8 -1.05 4.284343000000001 10.916274999999999 63.89525199999999 0 0 0
639 2 6 1.05 2.2011779999999996 10.879439999999999 63.858416999999996 0 0 0
180 0 8 -1.05 10.644343 8.796274999999998 63.82158199999999 0 0 0
194 0 8 -1.05 10.644343 10.842604999999999 61.775251999999995 0 0 0
192 0 8 -1.05 8.598012999999998 10.842604999999999 63.82158199999999 0 0 0
179 0 8 -1.05 8.598012999999998 8.796274999999998 61.775251999999995 0 0 0
178 2 6 1.05 8.561177999999998 8.759439999999998 63.858416999999996 0 0 0
635 2 7 1.575 8.561177999999998 10.879439999999999 61.73841699999999 0 0 0
329 2 7 1.575 10.681178 8.759439999999998 61.73841699999999 0 0 0
787 2 6 1.05 10.681178 10.879439999999999 63.858416999999996 0 0 0
91 0 8 -1.05 0.04434199999999855 4.482605 70.18158199999998 0 0 0
90 0 8 -1.05 0.04434199999999855 2.4362749999999993 68.135252 0 0 0
68 2 6 1.05 0.08117799999999864 4.51944 68.09841699999998 0 0 0
92 2 7 1.575 0.08117799999999864 2.3994399999999994 70.21841699999999 0 0 0
93 1 7 1.575 1.1411779999999991 5.57944 71.27841699999999 0 0 0
58 0 8 -1.05 0.11801299999999859 6.602605 68.06158199999999 0 0 0
69 0 8 -1.05 0.11801299999999859 4.556275 66.01525199999999 0 0 0
70 0 8 -1.05 2.1643429999999997 4.556275 68.06158199999999 0 0 0
60 0 8 -1.05 2.1643429999999997 6.602605 66.01525199999999 0 0 0
57 2 7 1.575 0.08117799999999864 6.639439999999998 65.978417 0 0 0
982 0 8 -1.05 2.1643429999999997 2.3626049999999985 70.25525199999998 0 1 0
967 0 8 -1.05 0.11801299999999859 0.3162749999999974 70.25525199999998 0 1 0
944 0 8 -1.05 0.04434199999999855 0.2426039999999965 65.94158099999999 0 1 0
947 1 7 1.575 1.1411779999999991 1.3394399999999997 67.038417 0 1 0
244 0 8 -1.05 4.358013000000001 4.556275 70.25525199999998 0 0 0
231 0 8 -1.05 4.284343000000001 6.676274999999998 68.135252 0 0 0
236 0 8 -1.05 6.478012999999999 2.4362749999999993 70.18158199999998 0 0 0
237 0 8 -1.05 6.478012999999999 4.482605 68.135252 0 0 0
225 0 8 -1.05 6.404343 6.602605 70.25525199999998 0 0 0
229 0 8 -1.05 2.2380129999999996 6.676274999999998 70.18158199999998 0 0 0
235 2 7 1.575 6.441177999999999 4.51944 70.21841699999999 0 0 0
209 2 6 1.05 2.2011779999999996 6.639439999999998 68.09841699999998 0 0 0
233 2 7 1.575 4.321178000000001 6.639439999999998 70.21841699999999 0 0 0
214 2 6 1.05 6.441177999999999 2.3994399999999994 68.09841699999998 0 0 0
226 1 7 1.575 7.5011779999999995 7.69944 69.158417 0 0 0
243 1 7 1.575 3.261178 3.45944 69.158417 0 0 0
220 0 8 -1.05 2.2380129999999996 2.4362749999999993 65.94158099999999 0 0 0
203 0 8 -1.05 6.478012999999999 6.676274999999998 65.94158099999999 0 0 0
221 0 8 -1.05 4.284343000000001 4.482605 65.94158099999999 0 0 0
222 2 7 1.575 4.321178000000001 2.3994399999999994 65.978417 0 0 0
219 2 7 1.575 2.2011779999999996 4.51944 65.978417 0 0 0
224 1 7 1.575 5.381178 5.57944 67.038417 0 0 0
210 1 7 1.575 3.261178 7.69944 64.91841699999998 0 0 0
215 1 7 1.575 7.5011779999999995 3.45944 64.91841699999998 0 0 0
1120 0 8 -1.05 4.284343000000001 0.2426039999999965 70.18158199999998 0 1 0
1118 0 8 -1.05 2.2380129999999996 0.2426039999999965 68.135252 0 1 0
1099 2 6 1.05 4.321178000000001 0.27943999999999747 68.09841699999998 0 1 0
1116 2 7 1.575 2.2011779999999996 0.27943999999999747 70.21841699999999 0 1 0
1122 1 7 1.575 5.381178 1.3394399999999997 71.27841699999999 0 1 0
1101 0 8 -1.05 6.404343 2.3626049999999985 66.01525199999999 0 1 0
1089 0 8 -1.05 6.404343 0.3162749999999974 68.06158199999999 0 1 0
1100 0 8 -1.05 4.358013000000001 0.3162749999999974 66.01525199999999 0 1 0
1111 0 8 -1.05 4.358013000000001 2.3626049999999985 68.06158199999999 0 1 0
1090 2 7 1.575 6.441177999999999 0.27943999999999747 65.978417 0 1 0
239 0 8 -1.05 8.524341999999999 4.482605 70.18158199999998 0 0 0
238 0 8 -1.05 8.524341999999999 2.4362749999999993 68.135252 0 0 0
216 2 6 1.05 8.561177999999998 4.51944 68.09841699999998 0 0 0
240 2 7 1.575 8.561177999999998 2.3994399999999994 70.21841699999999 0 0 0
241 1 7 1.575 9.621178 5.57944 71.27841699999999 0 0 0
206 0 8 -1.05 8.598012999999998 6.602605 68.06158199999999 0 0 0
217 0 8 -1.05 8.598012999999998 4.556275 66.01525199999999 0 0 0
218 0 8 -1.05 10.644343 4.556275 68.06158199999999 0 0 0
208 0 8 -1.05 10.644343 6.602605 66.01525199999999 0 0 0
205 2 7 1.575 8.561177999999998 6.639439999999998 65.978417 0 0 0
1130 0 8 -1.05 10.644343 2.3626049999999985 70.25525199999998 0 1 0
1115 0 8 -1.05 8.598012999999998 0.3162749999999974 70.25525199999998 0 1 0
1092 0 8 -1.05 8.524341999999999 0.2426039999999965 65.94158099999999 0 1 0
1095 1 7 1.575 9.621178 1.3394399999999997 67.038417 0 1 0
377 0 8 -1.05 10.718013 6.676274999999998 70.18158199999998 0 0 0
357 2 6 1.05 10.681178 6.639439999999998 68.09841699999998 0 0 0
391 1 7 1.575 11.741178000000001 3.45944 69.158417 0 0 0
368 0 8 -1.05 10.718013 2.4362749999999993 65.94158099999999 0 0 0
367 2 7 1.575 10.681178 4.51944 65.978417 0 0 0
358 1 7 1.575 11.741178000000001 7.69944 64.91841699999998 0 0 0
1266 0 8 -1.05 10.718013 0.2426039999999965 68.135252 0 1 0
1264 2 7 1.575 10.681178 0.27943999999999747 70.21841699999999 0 1 0
94 0 8 -1.05 2.1643429999999997 10.842604999999999 70.25525199999998 0 0 0
79 0 8 -1.05 0.11801299999999859 8.796274999999998 70.25525199999998 0 0 0
56 0 8 -1.05 0.04434199999999855 8.722603999999997 65.94158099999999 0 0 0
59 1 7 1.575 1.1411779999999991 9.81944 67.038417 0 0 0
534 0 8 -1.05 0.04434199999999855 10.916274999999999 68.135252 0 0 0
536 2 7 1.575 0.08117799999999864 10.879439999999999 70.21841699999999 0 0 0
232 0 8 -1.05 4.284343000000001 8.722603999999997 70.18158199999998 0 0 0
230 0 8 -1.05 2.2380129999999996 8.722603999999997 68.135252 0 0 0
211 2 6 1.05 4.321178000000001 8.759439999999998 68.09841699999998 0 0 0
228 2 7 1.575 2.2011779999999996 8.759439999999998 70.21841699999999 0 0 0
234 1 7 1.575 5.381178 9.81944 71.27841699999999 0 0 0
213 0 8 -1.05 6.404343 10.842604999999999 66.01525199999999 0 0 0
201 0 8 -1.05 6.404343 8.796274999999998 68.06158199999999 0 0 0
212 0 8 -1.05 4.358013000000001 8.796274999999998 66.01525199999999 0 0 0
223 0 8 -1.05 4.358013000000001 10.842604999999999 68.06158199999999 0 0 0
202 2 7 1.575 6.441177999999999 8.759439999999998 65.978417 0 0 0
680 0 8 -1.05 6.478012999999999 10.916274999999999 70.18158199999998 0 0 0
658 2 6 1.05 6.441177999999999 10.879439999999999 68.09841699999998 0 0 0
687 1 7 1.575 3.261178 11.939440000000001 69.158417 0 0 0
664 0 8 -1.05 2.2380129999999996 10.916274999999999 65.94158099999999 0 0 0
666 2 7 1.575 4.321178000000001 10.879439999999999 65.978417 0 0 0
659 1 7 1.575 7.5011779999999995 11.939440000000001 64.91841699999998 0 0 0
242 0 8 -1.05 10.644343 10.842604999999999 70.25525199999998 0 0 0
227 0 8 -1.05 8.598012999999998 8.796274999999998 70.25525199999998 0 0 0
204 0 8 -1.05 8.524341999999999 8.722603999999997 65.94158099999999 0 0 0
207 1 7 1.575 9.621178 9.81944 67.038417 0 0 0
682 0 8 -1.05 8.524341999999999 10.916274999999999 68.135252 0 0 0
684 2 7 1.575 8.561177999999998 10.879439999999999 70.21841699999999 0 0 0
378 0 8 -1.05 10.718013 8.722603999999997 68.135252 0 0 0
376 2 7 1.575 10.681178 8.759439999999998 70.21841699999999 0 0 0
835 1 7 1.575 11.741178000000001 11.939440000000001 69.158417 0 0 0
812 0 8 -1.05 10.718013 10.916274999999999 65.94158099999999 0 0 0
115 0 8 -1.05 0.11801299999999859 4.556275 74.49525199999998 0 0 0
101 0 8 -1.05 0.04434199999999855 6.676274999999998 72.37525199999999 0 0 0
106 0 8 -1.05 2.1643429999999997 6.602605 74.49525199999998 0 0 0
103 2 7 1.575 0.08117799999999864 6.639439999999998 74.458417 0 0 0
990 0 8 -1.05 0.04434199999999855 0.2426039999999965 74.421581 0 1 0
995 0 8 -1.05 2.1643429999999997 0.3162749999999974 72.30158199999998 0 1 0
1002 0 8 -1.05 0.11801299999999859 2.3626049999999985 72.30158199999998 0 1 0
992 2 6 1.05 0.08117799999999864 0.27943999999999747 72.33841699999998 0 1 0
267 0 8 -1.05 2.2380129999999996 4.482605 72.37525199999999 0 0 0
257 0 8 -1.05 4.358013000000001 6.602605 72.30158199999998 0 0 0
266 0 8 -1.05 2.2380129999999996 2.4362749999999993 74.421581 0 0 0
268 0 8 -1.05 4.284343000000001 2.4362749999999993 72.37525199999999 0 0 0
247 0 8 -1.05 6.478012999999999 6.676274999999998 74.421581 0 0 0
269 0 8 -1.05 4.284343000000001 4.482605 74.421581 0 0 0
260 0 8 -1.05 6.404343 4.556275 72.30158199999998 0 0 0
245 2 6 1.05 6.441177999999999 6.639439999999998 72.33841699999998 0 0 0
264 2 6 1.05 2.2011779999999996 2.3994399999999994 72.33841699999998 0 0 0
270 2 7 1.575 4.321178000000001 2.3994399999999994 74.458417 0 0 0
265 2 7 1.575 2.2011779999999996 4.51944 74.458417 0 0 0
271 2 6 1.05 4.321178000000001 4.51944 72.33841699999998 0 0 0
256 1 7 1.575 3.261178 7.69944 73.398417 0 0 0
261 1 7 1.575 7.5011779999999995 3.45944 73.398417 0 0 0
1147 0 8 -1.05 6.404343 2.3626049999999985 74.49525199999998 0 1 0
1146 0 8 -1.05 4.358013000000001 0.3162749999999974 74.49525199999998 0 1 0
1136 0 8 -1.05 6.478012999999999 0.2426039999999965 72.37525199999999 0 1 0
1134 2 7 1.575 6.441177999999999 0.27943999999999747 74.458417 0 1 0
263 0 8 -1.05 8.598012999999998 4.556275 74.49525199999998 0 0 0
249 0 8 -1.05 8.524341999999999 6.676274999999998 72.37525199999999 0 0 0
254 0 8 -1.05 10.644343 6.602605 74.49525199999998 0 0 0
251 2 7 1.575 8.561177999999998 6.639439999999998 74.458417 0 0 0
1138 0 8 -1.05 8.524341999999999 0.2426039999999965 74.421581 0 1 0
1143 0 8 -1.05 10.644343 0.3162749999999974 72.30158199999998 0 1 0
1150 0 8 -1.05 8.598012999999998 2.3626049999999985 72.30158199999998 0 1 0
1140 2 6 1.05 8.561177999999998 0.27943999999999747 72.33841699999998 0 1 0
415 0 8 -1.05 10.718013 4.482605 72.37525199999999 0 0 0
414 0 8 -1.05 10.718013 2.4362749999999993 74.421581 0 0 0
412 2 6 1.05 10.681178 2.3994399999999994 72.33841699999998 0 0 0
413 2 7 1.575 10.681178 4.51944 74.458417 0 0 0
404 1 7 1.575 11.741178000000001 7.69944 73.398417 0 0 0
102 0 8 -1.05 0.04434199999999855 8.722603999999997 74.421581 0 0 0
107 0 8 -1.05 2.1643429999999997 8.796274999999998 72.30158199999998 0 0 0
114 0 8 -1.05 0.11801299999999859 10.842604999999999 72.30158199999998 0 0 0
104 2 6 1.05 0.08117799999999864 8.759439999999998 72.33841699999998 0 0 0
259 0 8 -1.05 6.404343 10.842604999999999 74.49525199999998 0 0 0
258 0 8 -1.05 4.358013000000001 8.796274999999998 74.49525199999998 0 0 0
248 0 8 -1.05 6.478012999999999 8.722603999999997 72.37525199999999 0 0 0
246 2 7 1.575 6.441177999999999 8.759439999999998 74.458417 0 0 0
710 0 8 -1.05 2.2380129999999996 10.916274999999999 74.421581 0 0 0
712 0 8 -1.05 4.284343000000001 10.916274999999999 72.37525199999999 0 0 0
708 2 6 1.05 2.2011779999999996 10.879439999999999 72.33841699999998 0 0 0
714 2 7 1.575 4.321178000000001 10.879439999999999 74.458417 0 0 0
705 1 7 1.575 7.5011779999999995 11.939440000000001 73.398417 0 0 0
250 0 8 -1.05 8.524341999999999 8.722603999999997 74.421581 0 0 0
255 0 8 -1.05 10.644343 8.796274999999998 72.30158199999998 0 0 0
262 0 8 -1.05 8.598012999999998 10.842604999999999 72.30158199999998 0 0 0
252 2 6 1.05 8.561177999999998 8.759439999999998 72.33841699999998 0 0 0
858 0 8 -1.05 10.718013 10.916274999999999 74.421581 0 0 0
856 2 6 1.05 10.681178 10.879439999999999 72.33841699999998 0 0 0
143 2 7 1.575 0.08117799999999864 4.51944 76.578417 0 0 0
281 0 2 -0.123 5.4884571807598395 9.718128861827797 80.14589363675933 0 0 0
127 0 8 -1.05 0.11801299999999859 6.602605 76.54158199999999 0 0 0
145 0 9 -0.975 2.1104455110577045 4.609825878341028 76.3203683378666 0 0 0
144 0 3 -0.804 2.1359849451265025 6.110838212070821 78.46310523017374 0 0 0
139 0 3 -0.804 0.6123168832640606 4.592910136889667 78.46394852095463 0 0 0
146 0 10 0.425 2.6877663991185403 4.032583052712255 76.97313430684721 0 0 0
128 0 10 0.425 0.21459725039791663 2.264244231141639 77.62902915553538 0 0 0
993 2 7 1.575 1.1411779999999991 1.3394399999999997 75.51841699999999 0 1 0
278 2 7 1.575 2.2011779999999996 6.639439999999998 76.578417 0 0 0
285 2 7 1.575 6.441177999999999 2.3994399999999994 76.578417 0 0 0
286 0 8 -1.05 6.478012999999999 4.482605 76.615252 0 0 0
282 0 9 -0.975 4.235322636692291 6.725832784247134 76.62726871220625 0 0 0
272 2 7 1.575 5.381178 5.57944 75.51841699999999 0 0 0
274 0 10 0.425 6.927955429828415 8.272793884370003 76.97294078630283 0 0 0
296 0 10 0.425 4.455310975532011 6.505489689290663 77.62881866997773 0 0 0
1172 2 7 1.575 4.321178000000001 0.27943999999999747 76.578417 0 1 0
1167 0 8 -1.05 2.2380129999999996 0.2426039999999965 76.615252 0 1 0
1161 0 9 -0.975 6.350805821658427 0.36969719643113 76.31941665294455 0 1 0
1183 0 8 -1.05 4.358013000000001 2.3626049999999985 76.54158199999999 0 1 0
1171 0 3 -0.804 6.378631307321686 1.8639895580363663 78.46243888962596 0 1 0
1165 0 3 -0.804 4.856935072077652 0.34380090517782597 78.46262735980437 0 1 0
291 2 7 1.575 8.561177999999998 4.51944 76.578417 0 0 0
290 0 9 -0.975 8.4745642457195 2.4856482107779767 76.62577897051199 0 0 0
275 0 8 -1.05 8.598012999999998 6.602605 76.54158199999999 0 0 0
293 0 9 -0.975 10.590868509883483 4.60956354356023 76.31921225659272 0 0 0
292 0 3 -0.804 10.615283984197301 6.100435819425805 78.4626749565885 0 0 0
287 0 3 -0.804 9.095954344422287 4.577802345950208 78.46206796073425 0 0 0
294 0 10 0.425 11.167890882751422 4.032102481761928 76.97197492768228 0 0 0
276 0 10 0.425 8.694831696527492 2.265713917303795 77.62738261009514 0 0 0
1141 2 7 1.575 9.621178 1.3394399999999997 75.51841699999999 0 1 0
426 2 7 1.575 10.681178 6.639439999999998 76.578417 0 0 0
1315 0 8 -1.05 10.718013 0.2426039999999965 76.615252 0 1 0
105 2 7 1.575 1.1411779999999991 9.81944 75.51841699999999 0 0 0
280 0 1 0.731 5.570197295872666 9.635220589064026 79.05331762190609 0 0 0
590 0 10 0.425 2.6878302438071993 12.512568107241114 76.97286163753091 0 0 0
572 0 10 0.425 0.21477901909607255 10.745531967947658 77.62769690657865 0 0 0
284 2 7 1.575 4.321178000000001 8.759439999999998 76.578417 0 0 0
279 0 8 -1.05 2.2380129999999996 8.722603999999997 76.615252 0 0 0
273 0 9 -0.975 6.350608299257873 8.849921183095198 76.32000944129099 0 0 0
295 0 8 -1.05 4.358013000000001 10.842604999999999 76.54158199999999 0 0 0
283 0 3 -0.804 6.376930727559897 10.34889397472869 78.46304279837528 0 0 0
277 0 3 -0.804 4.854580267386584 8.829636427019334 78.46363724432689 0 0 0
729 2 7 1.575 6.441177999999999 10.879439999999999 76.578417 0 0 0
253 2 7 1.575 9.621178 9.81944 75.51841699999999 0 0 0
734 0 9 -0.975 8.474813763621688 10.965614363512628 76.6260793748839 0 0 0
738 0 10 0.425 11.16805739312396 12.512338680572471 76.97231645425728 0 0 0
720 0 10 0.425 8.695103305597026 10.746143406496126 77.62779618676429 0 0 0
427 0 8 -1.05 10.718013 8.722603999999997 76.615252 0 0 0
140 0 1 0.731 1.3273681800463568 5.399388865095782 79.05329686610929 0 0 0
141 0 2 -0.123 1.2431480465290847 5.48520953504612 80.1454687609858 0 0 0
1168 0 1 0.731 5.5711714658575024 1.1506465144391143 79.05219118373812 0 1 0
1169 0 2 -0.123 5.4855203587686985 1.2366568204057307 80.1440799763351 0 1 0
288 0 1 0.731 9.80943836908948 5.3848542597555085 79.05211969568504 0 0 0
289 0 2 -0.123 9.72444219184546 5.468564752127388 80.1442205194378 0 0 0
430 0 9 -0.975 12.714685298798466 6.725519423685103 76.62684512671338 0 0 0
464 0 1 0.731 3.064672380797766 16.362474061632604 57.14439227211539 0 0 0
463 0 2 -0.123 3.14659070105036 16.277366799430563 56.05212656269757 0 0 0
612 0 1 0.731 11.556358403797557 16.368598327010293 57.144903105080935 0 0 0
611 0 2 -0.123 11.647267189993645 16.27883001266975 56.053744830386115 0 0 0
908 0 1 0.731 3.073011982582603 24.84953067918889 57.14413881888029 0 0 0
907 0 2 -0.123 3.155248331709222 24.76786102418486 56.05160890508867 0 0 0
604 0 1 0.731 7.3194368023465115 20.61727276896739 57.14394295713485 0 0 0
603 0 2 -0.123 7.401758252681091 20.538933794618448 56.05116550722207 0 0 0
1056 0 1 0.731 11.552759880507935 24.856998052965903 57.143729382557666 0 0 0
1055 0 2 -0.123 11.628866118229281 24.782837400232708 56.05020478054948 0 0 0
1233 2 7 1.575 11.741178000000001 20.41944 60.678416999999996 0 0 0
461 2 7 1.575 0.08117799999999864 12.99944 59.618416999999994 0 0 0
447 0 9 -0.975 0.16670590640806127 15.032295444830057 59.57045122699251 0 0 0
465 0 8 -1.05 2.1643429999999997 13.036275 59.581582000000004 0 0 0
462 0 3 -0.804 2.256444991685936 15.650716921167431 57.7349776579108 0 0 0
600 0 8 -1.05 4.284343000000001 15.156274999999997 59.655252 0 0 0
607 0 9 -0.975 6.531188381301118 12.909457167324396 59.877180667710185 0 0 0
597 2 7 1.575 2.2011779999999996 15.119439999999997 59.618416999999994 0 0 0
620 2 7 1.575 7.5011779999999995 16.17944 60.678416999999996 0 0 0
594 0 10 0.425 8.427188885602936 15.25431911933755 58.56775937994749 0 0 0
616 0 10 0.425 5.953320524762044 13.48684017359841 59.22500784320438 0 0 0
161 0 3 -0.804 8.024045207715734 12.92696615217403 57.73349726757514 0 0 0
609 2 7 1.575 8.561177999999998 12.99944 59.618416999999994 0 0 0
595 0 9 -0.975 8.647265175960289 15.033142438485292 59.569073888908164 0 0 0
613 0 8 -1.05 10.644343 13.036275 59.581582000000004 0 0 0
610 0 3 -0.804 10.747813172025213 15.6560878227222 57.7340034773796 0 0 0
745 2 7 1.575 10.681178 15.119439999999997 59.618416999999994 0 0 0
1189 2 7 1.575 10.681178 23.599439999999998 59.618416999999994 0 0 0
451 0 3 -0.804 3.7822650618982756 17.166831931268455 57.733434808752314 0 0 0
904 0 8 -1.05 0.04434199999999855 19.396275 59.655252 0 0 0
905 2 7 1.575 0.08117799999999864 21.47944 59.618416999999994 0 0 0
891 0 9 -0.975 0.1676212672472601 23.513219133592052 59.57040844746603 0 0 0
909 0 8 -1.05 2.1643429999999997 21.516275 59.581582000000004 0 0 0
906 0 3 -0.804 2.267738120402503 24.13381047873403 57.73393693878832 0 0 0
598 0 9 -0.975 2.2913432463440127 17.149356164069474 59.877353175521996 0 0 0
602 2 7 1.575 4.321178000000001 17.23944 59.618416999999994 0 0 0
593 0 8 -1.05 6.404343 17.276275 59.581582000000004 0 0 0
615 0 9 -0.975 4.407419860020518 19.27340991637966 59.56802172493391 0 0 0
601 0 3 -0.804 6.516736026445795 19.89775561732789 57.73297918520705 0 0 0
614 0 10 0.425 4.186196976384476 19.494267712081438 58.56692407030594 0 0 0
596 0 10 0.425 1.7133940817738667 17.726444704646738 59.22498606752966 0 0 0
1044 0 8 -1.05 4.284343000000001 23.636274999999998 59.655252 0 0 0
1051 0 9 -0.975 6.53120553118649 21.389028854297248 59.87715573749992 0 0 0
1041 2 7 1.575 2.2011779999999996 23.599439999999998 59.618416999999994 0 0 0
1050 2 7 1.575 6.441177999999999 19.35944 59.618416999999994 0 0 0
1064 2 7 1.575 7.5011779999999995 24.65944 60.678416999999996 0 0 0
1085 2 7 1.575 3.261178 20.41944 60.678416999999996 0 0 0
1038 0 10 0.425 8.426936886934397 23.73283438188183 58.569090028347226 0 0 0
1060 0 10 0.425 5.954103474299631 21.96700630708565 59.22479033436501 0 0 0
605 0 3 -0.804 8.031667416502334 21.424660162962095 57.734980721994766 0 0 0
1052 0 8 -1.05 8.524341999999999 19.396275 59.655252 0 0 0
1053 2 7 1.575 8.561177999999998 21.47944 59.618416999999994 0 0 0
1039 0 9 -0.975 8.648022552867 23.51368582459783 59.57067576066023 0 0 0
1057 0 8 -1.05 10.644343 21.516275 59.581582000000004 0 0 0
1054 0 3 -0.804 10.751359354949576 24.136721716382567 57.73362968404354 0 0 0
746 0 9 -0.975 10.771575250952008 17.149178946090007 59.87736637247455 0 0 0
762 0 10 0.425 12.666577386536046 19.49363353514046 58.56794158728192 0 0 0
744 0 10 0.425 10.194441158271102 17.726569741195995 59.22455723003444 0 0 0
599 0 3 -0.804 12.26735484596061 17.17850839119921 57.73448157806433 0 0 0
473 0 8 -1.05 0.04434199999999855 15.156274999999997 63.89525199999999 0 0 0
486 0 8 -1.05 0.04434199999999855 12.962605 61.701581999999995 0 0 0
489 1 7 1.575 1.1411779999999991 14.05944 62.798417 0 0 0
644 0 8 -1.05 4.358013000000001 13.036275 61.775251999999995 0 0 0
640 0 8 -1.05 2.2380129999999996 12.962605 63.89525199999999 0 0 0
629 0 8 -1.05 4.358013000000001 15.082605000000001 63.82158199999999 0 0 0
617 0 8 -1.05 6.404343 15.082605000000001 61.775251999999995 0 0 0
626 0 8 -1.05 2.2380129999999996 15.156274999999997 61.701581999999995 0 0 0
631 0 8 -1.05 6.404343 13.036275 63.82158199999999 0 0 0
618 2 6 1.05 6.441177999999999 15.119439999999997 63.858416999999996 0 0 0
632 2 7 1.575 6.441177999999999 12.99944 61.73841699999999 0 0 0
628 2 7 1.575 4.321178000000001 15.119439999999997 61.73841699999999 0 0 0
643 2 6 1.05 4.321178000000001 12.99944 63.858416999999996 0 0 0
621 0 8 -1.05 8.524341999999999 15.156274999999997 63.89525199999999 0 0 0
634 0 8 -1.05 8.524341999999999 12.962605 61.701581999999995 0 0 0
637 1 7 1.575 9.621178 14.05944 62.798417 0 0 0
788 0 8 -1.05 10.718013 12.962605 63.89525199999999 0 0 0
774 0 8 -1.05 10.718013 15.156274999999997 61.701581999999995 0 0 0
476 0 8 -1.05 2.1643429999999997 17.276275 63.82158199999999 0 0 0
490 0 8 -1.05 2.1643429999999997 19.322605 61.775251999999995 0 0 0
488 0 8 -1.05 0.11801299999999859 19.322605 63.82158199999999 0 0 0
475 0 8 -1.05 0.11801299999999859 17.276275 61.775251999999995 0 0 0
474 2 6 1.05 0.08117799999999864 17.23944 63.858416999999996 0 0 0
917 0 8 -1.05 0.04434199999999855 23.636274999999998 63.89525199999999 0 0 0
930 0 8 -1.05 0.04434199999999855 21.442605 61.701581999999995 0 0 0
931 2 7 1.575 0.08117799999999864 19.35944 61.73841699999999 0 0 0