LAMMPS (29 Sep 2021 - Update 2)
variable  rand equal round(random(0,1e7,452345))
variable layer index 17

variable temp index 500000 450000 405000 364500 328050 295245 265720 239148 215233 193709 174338 156904 141213 127091 114381 102942 92647 83382 75043 67538 60784 54705 49234 44310 39879 35891 32301 29070 26163 23546 21191 19071 17163 15446 13901 12510 11259 10133 9119 8207 7386 6647 5982 5383 4844 4359 3923 3530 3177 2859 2573 2315 2083 1874 1686 1517 1365 1228 1105 994 894 804 723 650 585 526 473 425 382 343 308 277 249 224 201 180 162 145 130 117 105 94 84 75 67 60 54 48 43 38 34 30 27 24 21 18 16 14 12 10 9 8 7 6 5 4 3 2 1

variable type string int_full

include settings.lmp
units              real
atom_style         full
timestep	   0.5
boundary	   p p f

pair_style         lj/cut/coul/long 12.0
bond_style         harmonic
angle_style        harmonic
dihedral_style     fourier
improper_style     cvff
kspace_style       pppm 1.0e-6
kspace_modify      slab 3.0

pair_modify        mix arithmetic
special_bonds      amber
neighbor           2.0 bin
neigh_modify       every 1 delay 0 check yes

read_data 001-dbt_3x3_${layer}L_fa_${type}_init.data
read_data 001-dbt_3x3_17L_fa_${type}_init.data
read_data 001-dbt_3x3_17L_fa_int_full_init.data
Reading data file ...
  orthogonal box = (0.0000000 0.0000000 35.929417) to (25.440000 25.440000 100.26742)
  2 by 2 by 5 MPI processor grid
  reading atoms ...
  1332 atoms
  reading velocities ...
  1332 velocities
  scanning bonds ...
  3 = max bonds/atom
  scanning angles ...
  3 = max angles/atom
  scanning impropers ...
  1 = max impropers/atom
  reading bonds ...
  180 bonds
  reading angles ...
  324 angles
  reading impropers ...
  36 impropers
Finding 1-2 1-3 1-4 neighbors ...
  special bond factors lj:    0        0        0.5     
  special bond factors coul:  0        0        0.8333333333333334
     3 = max # of 1-2 neighbors
     2 = max # of 1-3 neighbors
     2 = max # of 1-4 neighbors
     3 = max # of special neighbors
  special bonds CPU = 0.001 seconds
  read_data CPU = 0.023 seconds

include ff_formic_acid_fe304.param
#####################-----formic_acid-----######################################

mass  1   12.011   # Sp2 C carbonyl group
mass  2    1.008   # H bonded to non-sp3 carbon with 2 electrwd. group
mass  3   15.9994  # Oxygen with one connected atom
mass  4   15.9994  # Oxygen in hydroxyl group
mass  5    1.008   # Hydroxyl group

pair_coeff  1  1   0.0988  3.31521230994  # c
pair_coeff  2  2   0.0161  2.44729877873  # h5
pair_coeff  3  3   0.1463  3.04812087425  # o
pair_coeff  4  4   0.0930  3.24287133403  # oh
pair_coeff  5  5   0.0047  0.537924646013 # ho

bond_coeff  1  361.80  1.105  # c-h5
bond_coeff  2  652.57  1.218  # c=o
bond_coeff  3  383.13  1.351  # c-oh
bond_coeff  4  563.51  0.973  # o-h

angle_coeff  1   51.617  106.550  # c-oh-ho
angle_coeff  2   65.930  123.650  # h5-c=o
angle_coeff  3   65.262  109.490  # h5-c-oh
angle_coeff  4  115.745  122.100  # o=c-oh

dihedral_coeff  1  1  2.3  2  180.0               # h5-c-oh-ho
dihedral_coeff  2  2  2.3  2  180.0  1.9  1  0.0  # o=c-oh-ho

                              #  h5
                              #  |
improper_coeff  1  10.5 -1 2  #  c
                              # / \
                              # o  oh

#####################-----formate-----###########################################

angle_coeff  5   118.817 130.250  # o-c-o

                              #  h5
                              #  |
improper_coeff  2  10.5 -1 2  #  c
                              # / \
                              # o  o

#####################-----magnetite-----#########################################

mass  6   55.845   # Iron(II)
mass  7   55.845   # Iron(III)
mass  8   15.9994  # Bridging oxygen
mass  9   15.9994  # Hydroxyl oxygen
mass  10   1.008   # Hydroxyl hydrogen

pair_coeff  6  6   9.0298e-07  4.90620  # fe2
pair_coeff  7  7   9.0298e-07  4.90620  # fe3
pair_coeff  8  8   0.1554      3.16554  # ob
pair_coeff  9  9   0.1554      3.16554  # oh
pair_coeff  10 10  0.0         0.0      # ho

bond_coeff  5  554.1349  1.0   # oh-ho
bond_coeff  6    0.0     2.08  # fe-oh (dummy bond)

angle_coeff  6   30.0  109.470  # fe-oh-ho

##################################################################################

dump dmp all custom 10000 swap_${layer}L_${type}.lammpstrj id mol type q x y z
dump dmp all custom 10000 swap_17L_${type}.lammpstrj id mol type q x y z
dump dmp all custom 10000 swap_17L_int_full.lammpstrj id mol type q x y z
dump_modify dmp sort id

group fe type 7 6
468 atoms in group fe

compute coord fe coord/atom cutoff 2.0
dump coord fe custom 1 fe_${layer}L.coord id type c_coord
dump coord fe custom 1 fe_17L.coord id type c_coord
dump_modify coord sort id
run 0
WARNING: No fixes defined, atoms won't move (../verlet.cpp:55)
PPPM initialization ...
  using 12-bit tables for long-range coulomb (../kspace.cpp:340)
  G vector (1/distance) = 0.28992484
  grid = 40 40 160
  stencil order = 5
  estimated absolute RMS force accuracy = 0.0003575219
  estimated relative force accuracy = 1.0766666e-06
  using double precision KISS FFT
  3d grid and FFT values/proc = 100920 46800
Neighbor list info ...
  update every 1 steps, delay 0 steps, check yes
  max neighbors/atom: 2000, page size: 100000
  master list distance cutoff = 14
  ghost atom cutoff = 14
  binsize = 7, bins = 4 4 10
  2 neighbor lists, perpetual/occasional/extra = 1 1 0
  (1) pair lj/cut/coul/long, perpetual
      attributes: half, newton on
      pair build: half/bin/newton
      stencil: half/bin/3d
      bin: standard
  (2) compute coord/atom, occasional
      attributes: full, newton on
      pair build: full/bin
      stencil: full/bin/3d
      bin: standard
Per MPI rank memory allocation (min/avg/max) = 12.95 | 14.74 | 19.36 Mbytes
Step Temp E_pair E_mol TotEng Press 
       0            0   -201656.26    14706.482   -186949.77   -49217.452 
Loop time of 1.06129e-05 on 20 procs for 0 steps with 1332 atoms

17.9% CPU use with 20 MPI tasks x no OpenMP threads

MPI task timing breakdown:
Section |  min time  |  avg time  |  max time  |%varavg| %total
---------------------------------------------------------------
Pair    | 0          | 0          | 0          |   0.0 |  0.00
Bond    | 0          | 0          | 0          |   0.0 |  0.00
Kspace  | 0          | 0          | 0          |   0.0 |  0.00
Neigh   | 0          | 0          | 0          |   0.0 |  0.00
Comm    | 0          | 0          | 0          |   0.0 |  0.00
Output  | 0          | 0          | 0          |   0.0 |  0.00
Modify  | 0          | 0          | 0          |   0.0 |  0.00
Other   |            | 1.061e-05  |            |       |100.00

Nlocal:        66.6000 ave         216 max           0 min
Histogram: 8 0 8 0 0 0 0 0 0 4
Nghost:        2084.60 ave        3163 max         851 min
Histogram: 8 0 0 0 0 0 0 0 8 4
Neighs:        27320.4 ave      102362 max           0 min
Histogram: 9 3 4 0 0 0 0 0 0 4
FullNghs:      54640.8 ave      197721 max           0 min
Histogram: 8 8 0 0 0 0 0 0 0 4

Total # of neighbors = 1092816
Ave neighs/atom = 820.43243
Ave special neighs/atom = 0.43243243
Neighbor list builds = 0
Dangerous builds = 0
variable fet atom c_coord==4
group fet variable fet
108 atoms in group fet
group feo subtract fe fet
360 atoms in group feo
undump coord

variable nfeo equal count(feo)
variable nsteps equal round((${nfeo}*${nfeo})/4)
variable nsteps equal round((360*${nfeo})/4)
variable nsteps equal round((360*360)/4)
variable nsteps_initial equal ${nfeo}*${nfeo}
variable nsteps_initial equal 360*${nfeo}
variable nsteps_initial equal 360*360

set group all mol 0
Setting atom values ...
  1332 settings made for mol
set group fet mol 1
Setting atom values ...
  108 settings made for mol
set group feo mol 2
Setting atom values ...
  360 settings made for mol

variable fet3 atom "gmask(fet) && q == 1.575"
group fet3 dynamic fe var fet3 every 100
dynamic group fet3 defined
variable rfet3 equal count(fet3)/count(fet)

variable feo3 atom "gmask(feo) && q == 1.575"
group feo3 dynamic fe var feo3 every 100
dynamic group feo3 defined
variable rfeo3 equal count(feo3)/count(feo)

variable cnum equal 109

# Initial mc to remove any residuals
fix  swp feo atom/swap 1 1 ${rand} 10000 ke no types 6 7
fix  swp feo atom/swap 1 1 855824 10000 ke no types 6 7
thermo 1000
thermo_style custom step pe f_swp[1] f_swp[2] v_rfet3 v_rfeo3
run ${nsteps_initial}
run 129600
PPPM initialization ...
  using 12-bit tables for long-range coulomb (../kspace.cpp:340)
  G vector (1/distance) = 0.28992484
  grid = 40 40 160
  stencil order = 5
  estimated absolute RMS force accuracy = 0.0003575219
  estimated relative force accuracy = 1.0766666e-06
  using double precision KISS FFT
  3d grid and FFT values/proc = 100920 46800
Per MPI rank memory allocation (min/avg/max) = 11.68 | 13.48 | 18.09 Mbytes
Step PotEng f_swp[1] f_swp[2] v_rfet3 v_rfeo3 
       0   -186949.77            0            0            1          0.7 
    1000   -195269.89         1000          353            1          0.7 
    2000   -195279.91         2000          677            1          0.7 
    3000   -195377.05         3000          994            1          0.7 
    4000   -195425.61         4000         1293            1          0.7 
    5000   -195277.46         5000         1598            1          0.7 
    6000   -195382.57         6000         1915            1          0.7 
    7000   -195183.88         7000         2253            1          0.7 
    8000   -195225.28         8000         2553            1          0.7 
    9000    -195083.7         9000         2881            1          0.7 
   10000   -195237.58        10000         3223            1          0.7 
   11000   -195234.96        11000         3532            1          0.7 
   12000      -195289        12000         3871            1          0.7 
   13000   -195145.05        13000         4184            1          0.7 
   14000   -195241.18        14000         4517            1          0.7 
   15000   -195029.39        15000         4853            1          0.7 
   16000   -194915.17        16000         5160            1          0.7 
   17000   -195071.61        17000         5501            1          0.7 
   18000   -194872.26        18000         5839            1          0.7 
   19000   -195221.35        19000         6137            1          0.7 
   20000   -195157.57        20000         6454            1          0.7 
   21000   -195210.38        21000         6769            1          0.7 
   22000   -195177.42        22000         7105            1          0.7 
   23000   -195133.19        23000         7407            1          0.7 
   24000   -195121.25        24000         7746            1          0.7 
   25000    -195271.8        25000         8077            1          0.7 
   26000   -195094.78        26000         8407            1          0.7 
   27000   -195028.22        27000         8705            1          0.7 
   28000   -195264.01        28000         9049            1          0.7 
   29000   -195296.22        29000         9367            1          0.7 
   30000    -195359.3        30000         9665            1          0.7 
   31000   -195128.39        31000         9967            1          0.7 
   32000   -195136.28        32000        10269            1          0.7 
   33000    -195082.5        33000        10577            1          0.7 
   34000   -195153.26        34000        10912            1          0.7 
   35000   -195182.16        35000        11228            1          0.7 
   36000   -195172.82        36000        11553            1          0.7 
   37000   -195128.45        37000        11898            1          0.7 
   38000    -195120.4        38000        12204            1          0.7 
   39000    -195177.8        39000        12519            1          0.7 
   40000   -195198.31        40000        12837            1          0.7 
   41000   -195313.31        41000        13172            1          0.7 
   42000      -195209        42000        13468            1          0.7 
   43000   -195216.02        43000        13773            1          0.7 
   44000   -195140.23        44000        14105            1          0.7 
   45000   -194990.11        45000        14434            1          0.7 
   46000   -195132.17        46000        14733            1          0.7 
   47000   -195228.13        47000        15049            1          0.7 
   48000   -195232.15        48000        15376            1          0.7 
   49000   -195176.79        49000        15693            1          0.7 
   50000   -195264.05        50000        16017            1          0.7 
   51000   -195430.78        51000        16348            1          0.7 
   52000   -195132.65        52000        16691            1          0.7 
   53000   -195273.52        53000        16993            1          0.7 
   54000   -195094.85        54000        17317            1          0.7 
   55000   -195095.73        55000        17651            1          0.7 
   56000   -195004.09        56000        17965            1          0.7 
   57000    -195087.8        57000        18275            1          0.7 
   58000   -195203.43        58000        18613            1          0.7 
   59000   -195177.15        59000        18923            1          0.7 
   60000   -195363.76        60000        19246            1          0.7 
   61000   -195222.84        61000        19540            1          0.7 
   62000   -194865.85        62000        19856            1          0.7 
   63000   -195308.63        63000        20171            1          0.7 
   64000   -195004.87        64000        20479            1          0.7 
   65000    -195132.2        65000        20767            1          0.7 
   66000   -195150.04        66000        21115            1          0.7 
   67000   -195034.94        67000        21444            1          0.7 
   68000   -195159.49        68000        21766            1          0.7 
   69000   -195245.35        69000        22097            1          0.7 
   70000   -195224.33        70000        22435            1          0.7 
   71000   -195166.98        71000        22762            1          0.7 
   72000   -195165.26        72000        23095            1          0.7 
   73000   -195297.14        73000        23400            1          0.7 
   74000   -195344.78        74000        23726            1          0.7 
   75000   -195293.37        75000        24049            1          0.7 
   76000   -195388.97        76000        24336            1          0.7 
   77000   -195263.29        77000        24663            1          0.7 
   78000   -195046.57        78000        24968            1          0.7 
   79000    -195241.4        79000        25248            1          0.7 
   80000   -195139.26        80000        25579            1          0.7 
   81000   -195244.73        81000        25907            1          0.7 
   82000    -195306.7        82000        26247            1          0.7 
   83000   -195266.99        83000        26534            1          0.7 
   84000   -195124.12        84000        26864            1          0.7 
   85000   -195217.94        85000        27185            1          0.7 
   86000   -195208.87        86000        27484            1          0.7 
   87000   -195016.58        87000        27793            1          0.7 
   88000   -195146.47        88000        28138            1          0.7 
   89000    -195249.4        89000        28447            1          0.7 
   90000   -195051.63        90000        28735            1          0.7 
   91000   -195233.18        91000        29062            1          0.7 
   92000    -195058.2        92000        29396            1          0.7 
   93000   -195185.86        93000        29712            1          0.7 
   94000   -195285.93        94000        30074            1          0.7 
   95000   -195039.35        95000        30386            1          0.7 
   96000   -195201.94        96000        30698            1          0.7 
   97000   -195439.77        97000        30994            1          0.7 
   98000   -195353.18        98000        31287            1          0.7 
   99000   -195186.92        99000        31619            1          0.7 
  100000    -195362.8       100000        31933            1          0.7 
  101000   -195274.41       101000        32241            1          0.7 
  102000   -195235.61       102000        32568            1          0.7 
  103000   -195243.75       103000        32886            1          0.7 
  104000    -194980.8       104000        33193            1          0.7 
  105000   -195041.09       105000        33544            1          0.7 
  106000   -195175.71       106000        33863            1          0.7 
  107000   -195263.03       107000        34165            1          0.7 
  108000   -195238.91       108000        34480            1          0.7 
  109000   -195203.17       109000        34789            1          0.7 
  110000   -195067.69       110000        35101            1          0.7 
  111000   -195149.37       111000        35412            1          0.7 
  112000   -195130.73       112000        35716            1          0.7 
  113000   -195278.84       113000        36037            1          0.7 
  114000   -195137.46       114000        36378            1          0.7 
  115000   -195226.42       115000        36705            1          0.7 
  116000   -195234.21       116000        37009            1          0.7 
  117000   -195202.95       117000        37341            1          0.7 
  118000   -195229.13       118000        37631            1          0.7 
  119000   -195277.71       119000        37975            1          0.7 
  120000   -195161.23       120000        38304            1          0.7 
  121000   -195125.61       121000        38638            1          0.7 
  122000   -195283.74       122000        38968            1          0.7 
  123000   -195193.55       123000        39293            1          0.7 
  124000   -195194.78       124000        39578            1          0.7 
  125000   -195337.26       125000        39913            1          0.7 
  126000   -195218.14       126000        40252            1          0.7 
  127000   -195175.56       127000        40559            1          0.7 
  128000    -195311.1       128000        40858            1          0.7 
  129000   -195153.96       129000        41208            1          0.7 
  129600   -194970.19       129600        41396            1          0.7 
Loop time of 4354.04 on 20 procs for 129600 steps with 1332 atoms

Performance: 1.286 ns/day, 18.664 hours/ns, 29.765 timesteps/s
99.4% CPU use with 20 MPI tasks x no OpenMP threads

MPI task timing breakdown:
Section |  min time  |  avg time  |  max time  |%varavg| %total
---------------------------------------------------------------
Pair    | 0.051738   | 55.628     | 204.01     | 983.7 |  1.28
Bond    | 0.062068   | 0.34536    | 0.78278    |  53.1 |  0.01
Kspace  | 660.48     | 809.14     | 865.6      | 259.1 | 18.58
Neigh   | 231.33     | 232.19     | 233.41     |   4.4 |  5.33
Comm    | 42.137     | 49.281     | 56.383     |  76.4 |  1.13
Output  | 0.013104   | 0.020748   | 0.033456   |   4.1 |  0.00
Modify  | 3199.2     | 3206.2     | 3212.2     |   9.2 | 73.64
Other   |            | 1.273      |            |       |  0.03

Nlocal:        66.6000 ave         216 max           0 min
Histogram: 8 0 8 0 0 0 0 0 0 4
Nghost:        2084.60 ave        3163 max         851 min
Histogram: 8 0 0 0 0 0 0 0 8 4
Neighs:        27320.4 ave      102362 max           0 min
Histogram: 9 3 4 0 0 0 0 0 0 4
FullNghs:      54640.8 ave      197721 max           0 min
Histogram: 8 8 0 0 0 0 0 0 0 4

Total # of neighbors = 1092816
Ave neighs/atom = 820.43243
Ave special neighs/atom = 0.43243243
Neighbor list builds = 259200
Dangerous builds = 0
unfix swp

thermo_style custom step temp pe
write_data 001-dbt_3x3_${layer}L_fa_${type}_rand.data
write_data 001-dbt_3x3_17L_fa_${type}_rand.data
write_data 001-dbt_3x3_17L_fa_int_full_rand.data
System init for write_data ...
PPPM initialization ...
  using 12-bit tables for long-range coulomb (../kspace.cpp:340)
  G vector (1/distance) = 0.28992484
  grid = 40 40 160
  stencil order = 5
  estimated absolute RMS force accuracy = 0.0003575219
  estimated relative force accuracy = 1.0766666e-06
  using double precision KISS FFT
  3d grid and FFT values/proc = 100920 46800

variable top_immobile equal bound(all,zmax)
variable top_immobile equal ${top_immobile}-10
variable top_immobile equal 80.267417-10

variable bottom_immobile equal bound(all,zmin)
variable bottom_immobile equal ${bottom_immobile}+10
variable bottom_immobile equal 55.929417+10

region top_immobile block INF INF INF INF ${top_immobile} INF side in units box
region top_immobile block INF INF INF INF 70.267417 INF side in units box
region bottom_immobile block INF INF INF INF INF ${bottom_immobile} side in units box
region bottom_immobile block INF INF INF INF INF 65.929417 side in units box

group top_immobile region top_immobile
486 atoms in group top_immobile
group bottom_immobile region bottom_immobile
486 atoms in group bottom_immobile

group ho type 9 10
144 atoms in group ho
group fa type 1 2 3 4 5
144 atoms in group fa

# Minimize O-H bond
group immobile_1 type 1 2 3 6 7 8
1188 atoms in group immobile_1

group top_ho intersect top_immobile ho
72 atoms in group top_ho
group bottom_ho intersect bottom_immobile ho
72 atoms in group bottom_ho

group top_fa intersect top_immobile fa
72 atoms in group top_fa
group bottom_fa intersect bottom_immobile fa
72 atoms in group bottom_fa

group immo_top_fa subtract all top_fa
1260 atoms in group immo_top_fa
group immo_bottom_fa subtract all bottom_fa
1260 atoms in group immo_bottom_fa

group immo_top_ho subtract all top_ho
1260 atoms in group immo_top_ho
group immo_bottom_ho subtract all bottom_ho
1260 atoms in group immo_bottom_ho

label minimize_temp

  variable ftemp equal v_temp

  # Minimize top formate
  fix freeze immo_top_fa setforce 0.0 0.0 0.0
  minimize 1.0e-6 1.0e-9 1000 10000
PPPM initialization ...
  using 12-bit tables for long-range coulomb (../kspace.cpp:340)
  G vector (1/distance) = 0.28992484
  grid = 40 40 160
  stencil order = 5
  estimated absolute RMS force accuracy = 0.0003575219
  estimated relative force accuracy = 1.0766666e-06
  using double precision KISS FFT
  3d grid and FFT values/proc = 100920 46800
Per MPI rank memory allocation (min/avg/max) = 12.80 | 14.60 | 19.22 Mbytes
Step Temp PotEng 
  129600            0   -194970.19 
  129613            0   -199482.82 
Loop time of 0.22309 on 20 procs for 13 steps with 1332 atoms

99.2% CPU use with 20 MPI tasks x no OpenMP threads

Minimization stats:
  Stopping criterion = energy tolerance
  Energy initial, next-to-last, final = 
     -194970.192608388  -199482.727883812  -199482.815754491
  Force two-norm initial, final = 3949.6628 13.672018
  Force max component initial, final = 427.10803 2.4504878
  Final line search alpha, max atom move = 0.017628505 0.043198436
  Iterations, force evaluations = 13 23

MPI task timing breakdown:
Section |  min time  |  avg time  |  max time  |%varavg| %total
---------------------------------------------------------------
Pair    | 1.6427e-05 | 0.01826    | 0.06611    |  17.7 |  8.19
Bond    | 2.6694e-05 | 9.8328e-05 | 0.00021031 |   0.0 |  0.04
Kspace  | 0.14946    | 0.19732    | 0.21602    |   5.4 | 88.45
Neigh   | 0          | 0          | 0          |   0.0 |  0.00
Comm    | 0.0028067  | 0.0044567  | 0.0060209  |   1.8 |  2.00
Output  | 0          | 0          | 0          |   0.0 |  0.00
Modify  | 2.3049e-05 | 3.252e-05  | 4.5207e-05 |   0.0 |  0.01
Other   |            | 0.002921   |            |       |  1.31

Nlocal:        66.6000 ave         216 max           0 min
Histogram: 8 0 8 0 0 0 0 0 0 4
Nghost:        2084.60 ave        3163 max         851 min
Histogram: 8 0 0 0 0 0 0 0 8 4
Neighs:        27320.4 ave      102362 max           0 min
Histogram: 9 3 4 0 0 0 0 0 0 4
FullNghs:      54640.8 ave      197721 max           0 min
Histogram: 8 8 0 0 0 0 0 0 0 4

Total # of neighbors = 1092816
Ave neighs/atom = 820.43243
Ave special neighs/atom = 0.43243243
Neighbor list builds = 0
Dangerous builds = 0
  min_modify integrator eulerexplicit tmax 10.0 tmin 0.0 delaystep 5           dtgrow 1.1 dtshrink 0.5 alpha0 0.1 alphashrink 0.99           vdfmax 100000 halfstepback no initialdelay no
  unfix freeze

  # Minimize top ho
  fix freeze immo_top_ho setforce 0.0 0.0 0.0
  minimize 1.0e-6 1.0e-9 1000 10000
PPPM initialization ...
  using 12-bit tables for long-range coulomb (../kspace.cpp:340)
  G vector (1/distance) = 0.28992484
  grid = 40 40 160
  stencil order = 5
  estimated absolute RMS force accuracy = 0.0003575219
  estimated relative force accuracy = 1.0766666e-06
  using double precision KISS FFT
  3d grid and FFT values/proc = 100920 46800
Per MPI rank memory allocation (min/avg/max) = 12.80 | 14.60 | 19.22 Mbytes
Step Temp PotEng 
  129613            0   -199482.82 
  129629            0   -203993.28 
Loop time of 0.234195 on 20 procs for 16 steps with 1332 atoms

99.2% CPU use with 20 MPI tasks x no OpenMP threads

Minimization stats:
  Stopping criterion = energy tolerance
  Energy initial, next-to-last, final = 
     -199482.815754491  -203993.232148463  -203993.275247748
  Force two-norm initial, final = 3598.3371 8.0072391
  Force max component initial, final = 357.56212 1.7552712
  Final line search alpha, max atom move = 0.036206659 0.063552507
  Iterations, force evaluations = 16 24

MPI task timing breakdown:
Section |  min time  |  avg time  |  max time  |%varavg| %total
---------------------------------------------------------------
Pair    | 1.5456e-05 | 0.019017   | 0.069116   |  18.1 |  8.12
Bond    | 3.0554e-05 | 0.00010578 | 0.00024342 |   0.0 |  0.05
Kspace  | 0.1552     | 0.20528    | 0.22471    |   5.5 | 87.65
Neigh   | 0.0021186  | 0.0021335  | 0.0021453  |   0.0 |  0.91
Comm    | 0.0031578  | 0.004797   | 0.0064216  |   1.7 |  2.05
Output  | 0          | 0          | 0          |   0.0 |  0.00
Modify  | 2.2597e-05 | 3.3344e-05 | 4.5374e-05 |   0.0 |  0.01
Other   |            | 0.002825   |            |       |  1.21

Nlocal:        66.6000 ave         216 max           0 min
Histogram: 8 0 8 0 0 0 0 0 0 4
Nghost:        2084.75 ave        3160 max         854 min
Histogram: 8 0 0 0 0 0 0 0 8 4
Neighs:        27294.0 ave      102214 max           0 min
Histogram: 8 4 4 0 0 0 0 0 0 4
FullNghs:      54640.8 ave      197721 max           0 min
Histogram: 8 8 0 0 0 0 0 0 0 4

Total # of neighbors = 1092816
Ave neighs/atom = 820.43243
Ave special neighs/atom = 0.43243243
Neighbor list builds = 1
Dangerous builds = 0
  min_modify integrator eulerexplicit tmax 10.0 tmin 0.0 delaystep 5           dtgrow 1.1 dtshrink 0.5 alpha0 0.1 alphashrink 0.99           vdfmax 100000 halfstepback no initialdelay no
  unfix freeze

  # Minimize bottom formate
  fix freeze immo_bottom_fa setforce 0.0 0.0 0.0
  minimize 1.0e-6 1.0e-9 1000 10000
PPPM initialization ...
  using 12-bit tables for long-range coulomb (../kspace.cpp:340)
  G vector (1/distance) = 0.28992484
  grid = 40 40 160
  stencil order = 5
  estimated absolute RMS force accuracy = 0.0003575219
  estimated relative force accuracy = 1.0766666e-06
  using double precision KISS FFT
  3d grid and FFT values/proc = 100920 46800
Per MPI rank memory allocation (min/avg/max) = 12.80 | 14.60 | 19.22 Mbytes
Step Temp PotEng 
  129629            0   -203993.28 
  129643            0   -208541.94 
Loop time of 0.232049 on 20 procs for 14 steps with 1332 atoms

99.5% CPU use with 20 MPI tasks x no OpenMP threads

Minimization stats:
  Stopping criterion = energy tolerance
  Energy initial, next-to-last, final = 
     -203993.275247748  -208541.843684944  -208541.939175727
  Force two-norm initial, final = 3951.4572 11.361433
  Force max component initial, final = 430.09543 2.0288537
  Final line search alpha, max atom move = 0.010953309 0.022222662
  Iterations, force evaluations = 14 24

MPI task timing breakdown:
Section |  min time  |  avg time  |  max time  |%varavg| %total
---------------------------------------------------------------
Pair    | 1.8275e-05 | 0.019196   | 0.06955    |  18.1 |  8.27
Bond    | 2.9165e-05 | 0.00011009 | 0.00025565 |   0.0 |  0.05
Kspace  | 0.15488    | 0.20527    | 0.2249     |   5.6 | 88.46
Neigh   | 0          | 0          | 0          |   0.0 |  0.00
Comm    | 0.0029416  | 0.0046306  | 0.0062818  |   1.8 |  2.00
Output  | 0          | 0          | 0          |   0.0 |  0.00
Modify  | 2.2281e-05 | 3.5192e-05 | 5.3393e-05 |   0.0 |  0.02
Other   |            | 0.002811   |            |       |  1.21

Nlocal:        66.6000 ave         216 max           0 min
Histogram: 8 0 8 0 0 0 0 0 0 4
Nghost:        2084.75 ave        3160 max         854 min
Histogram: 8 0 0 0 0 0 0 0 8 4
Neighs:        27299.5 ave      102181 max           0 min
Histogram: 8 4 4 0 0 0 0 0 0 4
FullNghs:      54640.8 ave      197721 max           0 min
Histogram: 8 8 0 0 0 0 0 0 0 4

Total # of neighbors = 1092816
Ave neighs/atom = 820.43243
Ave special neighs/atom = 0.43243243
Neighbor list builds = 0
Dangerous builds = 0
  min_modify integrator eulerexplicit tmax 10.0 tmin 0.0 delaystep 5           dtgrow 1.1 dtshrink 0.5 alpha0 0.1 alphashrink 0.99           vdfmax 100000 halfstepback no initialdelay no
  unfix freeze

  # Minimize bottom ho
  fix freeze immo_bottom_ho setforce 0.0 0.0 0.0
  minimize 1.0e-6 1.0e-9 1000 10000
PPPM initialization ...
  using 12-bit tables for long-range coulomb (../kspace.cpp:340)
  G vector (1/distance) = 0.28992484
  grid = 40 40 160
  stencil order = 5
  estimated absolute RMS force accuracy = 0.0003575219
  estimated relative force accuracy = 1.0766666e-06
  using double precision KISS FFT
  3d grid and FFT values/proc = 100920 46800
Per MPI rank memory allocation (min/avg/max) = 12.80 | 14.60 | 19.22 Mbytes
Step Temp PotEng 
  129643            0   -208541.94 
  129657            0   -210117.41 
Loop time of 0.206902 on 20 procs for 14 steps with 1332 atoms

99.5% CPU use with 20 MPI tasks x no OpenMP threads

Minimization stats:
  Stopping criterion = energy tolerance
  Energy initial, next-to-last, final = 
     -208541.939175727   -210117.21189864  -210117.411975509
  Force two-norm initial, final = 1281.9348 11.885760
  Force max component initial, final = 152.80377 2.9917022
  Final line search alpha, max atom move = 0.025221283 0.075454568
  Iterations, force evaluations = 14 21

MPI task timing breakdown:
Section |  min time  |  avg time  |  max time  |%varavg| %total
---------------------------------------------------------------
Pair    | 1.5748e-05 | 0.016905   | 0.061166   |  17.0 |  8.17
Bond    | 2.7397e-05 | 9.5221e-05 | 0.00020455 |   0.0 |  0.05
Kspace  | 0.13668    | 0.18093    | 0.19821    |   5.2 | 87.45
Neigh   | 0.0020899  | 0.0020993  | 0.0021101  |   0.0 |  1.01
Comm    | 0.0028267  | 0.0042974  | 0.0057177  |   1.6 |  2.08
Output  | 0          | 0          | 0          |   0.0 |  0.00
Modify  | 2.0487e-05 | 2.9443e-05 | 4.1389e-05 |   0.0 |  0.01
Other   |            | 0.002548   |            |       |  1.23

Nlocal:        66.6000 ave         216 max           0 min
Histogram: 8 0 8 0 0 0 0 0 0 4
Nghost:        2081.75 ave        3155 max         854 min
Histogram: 8 0 0 0 0 0 0 0 8 4
Neighs:        27293.6 ave      102167 max           0 min
Histogram: 8 4 4 0 0 0 0 0 0 4
FullNghs:      54640.8 ave      197721 max           0 min
Histogram: 8 8 0 0 0 0 0 0 0 4

Total # of neighbors = 1092816
Ave neighs/atom = 820.43243
Ave special neighs/atom = 0.43243243
Neighbor list builds = 1
Dangerous builds = 0
  min_modify integrator eulerexplicit tmax 10.0 tmin 0.0 delaystep 5           dtgrow 1.1 dtshrink 0.5 alpha0 0.1 alphashrink 0.99           vdfmax 100000 halfstepback no initialdelay no
  unfix freeze

  # Electrostatic relaxation
  fix  swp feo atom/swap 1 1 ${rand} ${temp} ke no types 6 7
  fix  swp feo atom/swap 1 1 710414 ${temp} ke no types 6 7
  fix  swp feo atom/swap 1 1 710414 500000 ke no types 6 7
  thermo 1000
  thermo_style custom step v_ftemp v_cnum pe f_swp[1] f_swp[2] v_rfet3 v_rfeo3
  run ${nsteps}
  run 32400
PPPM initialization ...
  using 12-bit tables for long-range coulomb (../kspace.cpp:340)
  G vector (1/distance) = 0.28992484
  grid = 40 40 160
  stencil order = 5
  estimated absolute RMS force accuracy = 0.0003575219
  estimated relative force accuracy = 1.0766666e-06
  using double precision KISS FFT
  3d grid and FFT values/proc = 100920 46800
Per MPI rank memory allocation (min/avg/max) = 11.68 | 13.48 | 18.09 Mbytes
Step v_ftemp v_cnum PotEng f_swp[1] f_swp[2] v_rfet3 v_rfeo3 
  129657       500000          109   -210117.41            0            0            1          0.7 
  130000       500000          109   -208374.45          343          236            1          0.7 
  131000       500000          109   -208274.56         1343          943            1          0.7 
  132000       500000          109   -207351.51         2343         1661            1          0.7 
  133000       500000          109   -207790.53         3343         2371            1          0.7 
  134000       500000          109   -207530.87         4343         3057            1          0.7 
  135000       500000          109   -208124.17         5343         3765            1          0.7 
  136000       500000          109   -208691.32         6343         4469            1          0.7 
  137000       500000          109   -207395.55         7343         5137            1          0.7 
  138000       500000          109   -208144.47         8343         5835            1          0.7 
  139000       500000          109   -208040.46         9343         6554            1          0.7 
  140000       500000          109   -208969.26        10343         7248            1          0.7 
  141000       500000          109   -207352.66        11343         7969            1          0.7 
  142000       500000          109   -207453.74        12343         8686            1          0.7 
  143000       500000          109   -207921.58        13343         9416            1          0.7 
  144000       500000          109   -208814.47        14343        10152            1          0.7 
  145000       500000          109   -208771.69        15343        10843            1          0.7 
  146000       500000          109    -208417.6        16343        11572            1          0.7 
  147000       500000          109   -208026.01        17343        12276            1          0.7 
  148000       500000          109   -208853.18        18343        12992            1          0.7 
  149000       500000          109   -208498.27        19343        13689            1          0.7 
  150000       500000          109   -209179.01        20343        14390            1          0.7 
  151000       500000          109   -208224.53        21343        15094            1          0.7 
  152000       500000          109   -207911.57        22343        15821            1          0.7 
  153000       500000          109   -208310.94        23343        16521            1          0.7 
  154000       500000          109   -208443.82        24343        17208            1          0.7 
  155000       500000          109   -208507.69        25343        17900            1          0.7 
  156000       500000          109    -208751.5        26343        18616            1          0.7 
  157000       500000          109   -207901.24        27343        19294            1          0.7 
  158000       500000          109   -209304.54        28343        20008            1          0.7 
  159000       500000          109    -208773.8        29343        20750            1          0.7 
  160000       500000          109   -207866.05        30343        21469            1          0.7 
  161000       500000          109   -208441.86        31343        22197            1          0.7 
  162000       500000          109   -208528.16        32343        22915            1          0.7 
  162057       500000          109   -208152.22        32400        22962            1          0.7 
Loop time of 1308.66 on 20 procs for 32400 steps with 1332 atoms

Performance: 1.070 ns/day, 22.439 hours/ns, 24.758 timesteps/s
99.4% CPU use with 20 MPI tasks x no OpenMP threads

MPI task timing breakdown:
Section |  min time  |  avg time  |  max time  |%varavg| %total
---------------------------------------------------------------
Pair    | 0.014139   | 16.468     | 59.872     | 532.0 |  1.26
Bond    | 0.018321   | 0.10228    | 0.23571    |  29.6 |  0.01
Kspace  | 201.47     | 244.95     | 261.67     | 138.6 | 18.72
Neigh   | 68.115     | 68.354     | 68.708     |   2.4 |  5.22
Comm    | 12.316     | 14.396     | 16.447     |  41.3 |  1.10
Output  | 0.0045469  | 0.0068312  | 0.0097915  |   2.1 |  0.00
Modify  | 961.99     | 964.02     | 965.77     |   4.9 | 73.66
Other   |            | 0.3687     |            |       |  0.03

Nlocal:        66.6000 ave         216 max           0 min
Histogram: 8 0 8 0 0 0 0 0 0 4
Nghost:        2081.75 ave        3155 max         854 min
Histogram: 8 0 0 0 0 0 0 0 8 4
Neighs:        27293.0 ave      102162 max           0 min
Histogram: 8 4 4 0 0 0 0 0 0 4
FullNghs:      54640.8 ave      197721 max           0 min
Histogram: 8 8 0 0 0 0 0 0 0 4

Total # of neighbors = 1092816
Ave neighs/atom = 820.43243
Ave special neighs/atom = 0.43243243
Neighbor list builds = 64800
Dangerous builds = 0

  variable cnum equal (${cnum}-1)
  variable cnum equal (109-1)

  unfix swp
  thermo_style custom step temp pe
  write_data  001-dbt_3x3_${layer}L_fa_${type}_${cnum}_${temp}K.data
  write_data  001-dbt_3x3_17L_fa_${type}_${cnum}_${temp}K.data
  write_data  001-dbt_3x3_17L_fa_int_full_${cnum}_${temp}K.data
  write_data  001-dbt_3x3_17L_fa_int_full_108_${temp}K.data
  write_data  001-dbt_3x3_17L_fa_int_full_108_500000K.data
System init for write_data ...
PPPM initialization ...
  using 12-bit tables for long-range coulomb (../kspace.cpp:340)
  G vector (1/distance) = 0.28992484
  grid = 40 40 160
  stencil order = 5
  estimated absolute RMS force accuracy = 0.0003575219
  estimated relative force accuracy = 1.0766666e-06
  using double precision KISS FFT
  3d grid and FFT values/proc = 100920 46800

next temp
jump SELF minimize_temp

  variable ftemp equal v_temp

  # Minimize top formate
  fix freeze immo_top_fa setforce 0.0 0.0 0.0
  minimize 1.0e-6 1.0e-9 1000 10000
PPPM initialization ...
  using 12-bit tables for long-range coulomb (../kspace.cpp:340)
  G vector (1/distance) = 0.28992484
  grid = 40 40 160
  stencil order = 5
  estimated absolute RMS force accuracy = 0.0003575219
  estimated relative force accuracy = 1.0766666e-06
  using double precision KISS FFT
  3d grid and FFT values/proc = 100920 46800
Per MPI rank memory allocation (min/avg/max) = 12.80 | 14.60 | 19.22 Mbytes
Step Temp PotEng 
  162057            0   -208152.22 
  162079            0   -208270.11 
Loop time of 0.412162 on 20 procs for 22 steps with 1332 atoms

99.3% CPU use with 20 MPI tasks x no OpenMP threads

Minimization stats:
  Stopping criterion = energy tolerance
  Energy initial, next-to-last, final = 
     -208152.218678973  -208270.023545862  -208270.106433766
  Force two-norm initial, final = 182.84705 17.961687
  Force max component initial, final = 46.558976 4.4195940
  Final line search alpha, max atom move = 0.013784886 0.060923598
  Iterations, force evaluations = 22 43

MPI task timing breakdown:
Section |  min time  |  avg time  |  max time  |%varavg| %total
---------------------------------------------------------------
Pair    | 2.5854e-05 | 0.033687   | 0.12234    |  24.1 |  8.17
Bond    | 5.1268e-05 | 0.00018659 | 0.00042631 |   0.0 |  0.05
Kspace  | 0.27695    | 0.36557    | 0.4        |   7.3 | 88.70
Neigh   | 0          | 0          | 0          |   0.0 |  0.00
Comm    | 0.0051914  | 0.0081616  | 0.011013   |   2.4 |  1.98
Output  | 0          | 0          | 0          |   0.0 |  0.00
Modify  | 3.9771e-05 | 5.9999e-05 | 9.5096e-05 |   0.0 |  0.01
Other   |            | 0.004498   |            |       |  1.09

Nlocal:        66.6000 ave         216 max           0 min
Histogram: 8 0 8 0 0 0 0 0 0 4
Nghost:        2081.75 ave        3155 max         854 min
Histogram: 8 0 0 0 0 0 0 0 8 4
Neighs:        27293.0 ave      102162 max           0 min
Histogram: 8 4 4 0 0 0 0 0 0 4
FullNghs:      54640.8 ave      197721 max           0 min
Histogram: 8 8 0 0 0 0 0 0 0 4

Total # of neighbors = 1092816
Ave neighs/atom = 820.43243
Ave special neighs/atom = 0.43243243
Neighbor list builds = 0
Dangerous builds = 0
  min_modify integrator eulerexplicit tmax 10.0 tmin 0.0 delaystep 5           dtgrow 1.1 dtshrink 0.5 alpha0 0.1 alphashrink 0.99           vdfmax 100000 halfstepback no initialdelay no
  unfix freeze

  # Minimize top ho
  fix freeze immo_top_ho setforce 0.0 0.0 0.0
  minimize 1.0e-6 1.0e-9 1000 10000
PPPM initialization ...
  using 12-bit tables for long-range coulomb (../kspace.cpp:340)
  G vector (1/distance) = 0.28992484
  grid = 40 40 160
  stencil order = 5
  estimated absolute RMS force accuracy = 0.0003575219
  estimated relative force accuracy = 1.0766666e-06
  using double precision KISS FFT
  3d grid and FFT values/proc = 100920 46800
Per MPI rank memory allocation (min/avg/max) = 12.80 | 14.60 | 19.22 Mbytes
Step Temp PotEng 
  162079            0   -208270.11 
  162087            0   -208346.35 
Loop time of 0.159596 on 20 procs for 8 steps with 1332 atoms

99.4% CPU use with 20 MPI tasks x no OpenMP threads

Minimization stats:
  Stopping criterion = energy tolerance
  Energy initial, next-to-last, final = 
     -208270.106433766   -208346.22093372  -208346.350497264
  Force two-norm initial, final = 315.67838 15.001933
  Force max component initial, final = 90.471244 4.0891580
  Final line search alpha, max atom move = 0.017432784 0.071285408
  Iterations, force evaluations = 8 16

MPI task timing breakdown:
Section |  min time  |  avg time  |  max time  |%varavg| %total
---------------------------------------------------------------
Pair    | 1.5805e-05 | 0.013071   | 0.047292   |  15.0 |  8.19
Bond    | 2.0081e-05 | 7.6238e-05 | 0.00016825 |   0.0 |  0.05
Kspace  | 0.10695    | 0.14115    | 0.15452    |   4.6 | 88.44
Neigh   | 0          | 0          | 0          |   0.0 |  0.00
Comm    | 0.0020336  | 0.0032337  | 0.0043419  |   1.5 |  2.03
Output  | 0          | 0          | 0          |   0.0 |  0.00
Modify  | 1.6557e-05 | 2.4106e-05 | 3.8016e-05 |   0.0 |  0.02
Other   |            | 0.002043   |            |       |  1.28

Nlocal:        66.6000 ave         216 max           0 min
Histogram: 8 0 8 0 0 0 0 0 0 4
Nghost:        2083.40 ave        3160 max         857 min
Histogram: 8 0 0 0 0 0 0 0 8 4
Neighs:        27296.2 ave      102183 max           0 min
Histogram: 8 4 4 0 0 0 0 0 0 4
FullNghs:      54640.8 ave      197721 max           0 min
Histogram: 8 8 0 0 0 0 0 0 0 4

Total # of neighbors = 1092816
Ave neighs/atom = 820.43243
Ave special neighs/atom = 0.43243243
Neighbor list builds = 0
Dangerous builds = 0
  min_modify integrator eulerexplicit tmax 10.0 tmin 0.0 delaystep 5           dtgrow 1.1 dtshrink 0.5 alpha0 0.1 alphashrink 0.99           vdfmax 100000 halfstepback no initialdelay no
  unfix freeze

  # Minimize bottom formate
  fix freeze immo_bottom_fa setforce 0.0 0.0 0.0
  minimize 1.0e-6 1.0e-9 1000 10000
PPPM initialization ...
  using 12-bit tables for long-range coulomb (../kspace.cpp:340)
  G vector (1/distance) = 0.28992484
  grid = 40 40 160
  stencil order = 5
  estimated absolute RMS force accuracy = 0.0003575219
  estimated relative force accuracy = 1.0766666e-06
  using double precision KISS FFT
  3d grid and FFT values/proc = 100920 46800
Per MPI rank memory allocation (min/avg/max) = 12.80 | 14.60 | 19.22 Mbytes
Step Temp PotEng 
  162087            0   -208346.35 
  162103            0   -208412.49 
Loop time of 0.299634 on 20 procs for 16 steps with 1332 atoms

99.1% CPU use with 20 MPI tasks x no OpenMP threads

Minimization stats:
  Stopping criterion = energy tolerance
  Energy initial, next-to-last, final = 
     -208346.350497264  -208412.334958244  -208412.488434178
  Force two-norm initial, final = 126.10467 14.444140
  Force max component initial, final = 30.520513 3.3800353
  Final line search alpha, max atom move = 0.0069765515 0.023580990
  Iterations, force evaluations = 16 31

MPI task timing breakdown:
Section |  min time  |  avg time  |  max time  |%varavg| %total
---------------------------------------------------------------
Pair    | 2.1334e-05 | 0.024656   | 0.088903   |  20.5 |  8.23
Bond    | 3.8156e-05 | 0.00014181 | 0.00033277 |   0.0 |  0.05
Kspace  | 0.20127    | 0.26549    | 0.29067    |   6.3 | 88.60
Neigh   | 0          | 0          | 0          |   0.0 |  0.00
Comm    | 0.0038577  | 0.0059448  | 0.0079616  |   2.0 |  1.98
Output  | 0          | 0          | 0          |   0.0 |  0.00
Modify  | 3.0114e-05 | 4.2953e-05 | 7.3767e-05 |   0.0 |  0.01
Other   |            | 0.003362   |            |       |  1.12

Nlocal:        66.6000 ave         216 max           0 min
Histogram: 8 0 8 0 0 0 0 0 0 4
Nghost:        2083.40 ave        3160 max         857 min
Histogram: 8 0 0 0 0 0 0 0 8 4
Neighs:        27298.5 ave      102186 max           0 min
Histogram: 8 4 4 0 0 0 0 0 0 4
FullNghs:      54640.8 ave      197721 max           0 min
Histogram: 8 8 0 0 0 0 0 0 0 4

Total # of neighbors = 1092816
Ave neighs/atom = 820.43243
Ave special neighs/atom = 0.43243243
Neighbor list builds = 0
Dangerous builds = 0
  min_modify integrator eulerexplicit tmax 10.0 tmin 0.0 delaystep 5           dtgrow 1.1 dtshrink 0.5 alpha0 0.1 alphashrink 0.99           vdfmax 100000 halfstepback no initialdelay no
  unfix freeze

  # Minimize bottom ho
  fix freeze immo_bottom_ho setforce 0.0 0.0 0.0
  minimize 1.0e-6 1.0e-9 1000 10000
PPPM initialization ...
  using 12-bit tables for long-range coulomb (../kspace.cpp:340)
  G vector (1/distance) = 0.28992484
  grid = 40 40 160
  stencil order = 5
  estimated absolute RMS force accuracy = 0.0003575219
  estimated relative force accuracy = 1.0766666e-06
  using double precision KISS FFT
  3d grid and FFT values/proc = 100920 46800
Per MPI rank memory allocation (min/avg/max) = 12.80 | 14.60 | 19.22 Mbytes
Step Temp PotEng 
  162103            0   -208412.49 
  162111            0   -208459.31 
Loop time of 0.159466 on 20 procs for 8 steps with 1332 atoms

99.0% CPU use with 20 MPI tasks x no OpenMP threads

Minimization stats:
  Stopping criterion = energy tolerance
  Energy initial, next-to-last, final = 
     -208412.488434178  -208459.160046441  -208459.314435536
  Force two-norm initial, final = 253.67243 10.648471
  Force max component initial, final = 80.639494 2.5167956
  Final line search alpha, max atom move = 0.012440755 0.031310838
  Iterations, force evaluations = 8 16

MPI task timing breakdown:
Section |  min time  |  avg time  |  max time  |%varavg| %total
---------------------------------------------------------------
Pair    | 1.3163e-05 | 0.013064   | 0.047365   |  14.9 |  8.19
Bond    | 2.1444e-05 | 7.7131e-05 | 0.00017272 |   0.0 |  0.05
Kspace  | 0.10691    | 0.14119    | 0.15454    |   4.5 | 88.54
Neigh   | 0          | 0          | 0          |   0.0 |  0.00
Comm    | 0.0019795  | 0.0031136  | 0.0041853  |   1.5 |  1.95
Output  | 0          | 0          | 0          |   0.0 |  0.00
Modify  | 1.7023e-05 | 2.4032e-05 | 3.5383e-05 |   0.0 |  0.02
Other   |            | 0.002002   |            |       |  1.26

Nlocal:        66.6000 ave         216 max           0 min
Histogram: 8 0 8 0 0 0 0 0 0 4
Nghost:        2084.30 ave        3160 max         857 min
Histogram: 8 0 0 0 0 0 0 0 8 4
Neighs:        27302.4 ave      102178 max           0 min
Histogram: 8 4 4 0 0 0 0 0 0 4
FullNghs:      54640.8 ave      197721 max           0 min
Histogram: 8 8 0 0 0 0 0 0 0 4

Total # of neighbors = 1092816
Ave neighs/atom = 820.43243
Ave special neighs/atom = 0.43243243
Neighbor list builds = 0
Dangerous builds = 0
  min_modify integrator eulerexplicit tmax 10.0 tmin 0.0 delaystep 5           dtgrow 1.1 dtshrink 0.5 alpha0 0.1 alphashrink 0.99           vdfmax 100000 halfstepback no initialdelay no
  unfix freeze

  # Electrostatic relaxation
  fix  swp feo atom/swap 1 1 ${rand} ${temp} ke no types 6 7
  fix  swp feo atom/swap 1 1 755762 ${temp} ke no types 6 7
  fix  swp feo atom/swap 1 1 755762 450000 ke no types 6 7
  thermo 1000
  thermo_style custom step v_ftemp v_cnum pe f_swp[1] f_swp[2] v_rfet3 v_rfeo3
  run ${nsteps}
  run 32400
PPPM initialization ...
  using 12-bit tables for long-range coulomb (../kspace.cpp:340)
  G vector (1/distance) = 0.28992484
  grid = 40 40 160
  stencil order = 5
  estimated absolute RMS force accuracy = 0.0003575219
  estimated relative force accuracy = 1.0766666e-06
  using double precision KISS FFT
  3d grid and FFT values/proc = 100920 46800
Per MPI rank memory allocation (min/avg/max) = 11.68 | 13.48 | 18.09 Mbytes
Step v_ftemp v_cnum PotEng f_swp[1] f_swp[2] v_rfet3 v_rfeo3 
  162111       450000          108   -208459.31            0            0            1          0.7 
  163000       450000          108   -209031.99          889          627            1          0.7 
  164000       450000          108   -207928.29         1889         1330            1          0.7 
  165000       450000          108   -208714.57         2889         2036            1          0.7 
  166000       450000          108   -208311.18         3889         2741            1          0.7 
  167000       450000          108   -209008.57         4889         3439            1          0.7 
  168000       450000          108   -208912.06         5889         4152            1          0.7 
  169000       450000          108   -208816.23         6889         4850            1          0.7 
  170000       450000          108   -208238.62         7889         5556            1          0.7 
  171000       450000          108   -208908.97         8889         6247            1          0.7 
  172000       450000          108    -207780.9         9889         6942            1          0.7 
  173000       450000          108   -208878.14        10889         7659            1          0.7 
  174000       450000          108   -208796.15        11889         8363            1          0.7 
  175000       450000          108   -208592.63        12889         9053            1          0.7 
  176000       450000          108   -208309.53        13889         9790            1          0.7 
  177000       450000          108   -208651.14        14889        10468            1          0.7 
  178000       450000          108   -207928.07        15889        11178            1          0.7 
  179000       450000          108   -209008.59        16889        11868            1          0.7 
  180000       450000          108    -208246.9        17889        12575            1          0.7 
  181000       450000          108   -208514.63        18889        13293            1          0.7 
  182000       450000          108   -207849.28        19889        13976            1          0.7 
  183000       450000          108    -208715.4        20889        14683            1          0.7 
  184000       450000          108   -208219.95        21889        15397            1          0.7 
  185000       450000          108   -208526.78        22889        16080            1          0.7 
  186000       450000          108   -209037.05        23889        16796            1          0.7 
  187000       450000          108   -208227.12        24889        17490            1          0.7 
  188000       450000          108    -208715.7        25889        18196            1          0.7 
  189000       450000          108   -208643.73        26889        18870            1          0.7 
  190000       450000          108   -208411.85        27889        19578            1          0.7 
  191000       450000          108   -208868.32        28889        20287            1          0.7 
  192000       450000          108    -208465.1        29889        20994            1          0.7 
  193000       450000          108   -208367.21        30889        21691            1          0.7 
  194000       450000          108   -208314.24        31889        22396            1          0.7 
  194511       450000          108   -208547.11        32400        22758            1          0.7 
Loop time of 1315.54 on 20 procs for 32400 steps with 1332 atoms

Performance: 1.064 ns/day, 22.557 hours/ns, 24.629 timesteps/s
99.3% CPU use with 20 MPI tasks x no OpenMP threads

MPI task timing breakdown:
Section |  min time  |  avg time  |  max time  |%varavg| %total
---------------------------------------------------------------
Pair    | 0.015696   | 16.537     | 60.021     | 532.4 |  1.26
Bond    | 0.017943   | 0.10738    | 0.27502    |  31.1 |  0.01
Kspace  | 203.08     | 246.64     | 263.44     | 138.5 | 18.75
Neigh   | 68.075     | 68.329     | 68.701     |   2.3 |  5.19
Comm    | 12.267     | 14.376     | 16.414     |  41.3 |  1.09
Output  | 0.003917   | 0.006185   | 0.0090695  |   2.2 |  0.00
Modify  | 967.14     | 969.16     | 970.93     |   4.9 | 73.67
Other   |            | 0.3771     |            |       |  0.03

Nlocal:        66.6000 ave         216 max           0 min
Histogram: 8 0 8 0 0 0 0 0 0 4
Nghost:        2084.30 ave        3160 max         857 min
Histogram: 8 0 0 0 0 0 0 0 8 4
Neighs:        27305.7 ave      102178 max           0 min
Histogram: 8 4 4 0 0 0 0 0 0 4
FullNghs:      54640.8 ave      197721 max           0 min
Histogram: 8 8 0 0 0 0 0 0 0 4

Total # of neighbors = 1092816
Ave neighs/atom = 820.43243
Ave special neighs/atom = 0.43243243
Neighbor list builds = 64800
Dangerous builds = 0

  variable cnum equal (${cnum}-1)
  variable cnum equal (108-1)

  unfix swp
  thermo_style custom step temp pe
  write_data  001-dbt_3x3_${layer}L_fa_${type}_${cnum}_${temp}K.data
  write_data  001-dbt_3x3_17L_fa_${type}_${cnum}_${temp}K.data
  write_data  001-dbt_3x3_17L_fa_int_full_${cnum}_${temp}K.data
  write_data  001-dbt_3x3_17L_fa_int_full_107_${temp}K.data
  write_data  001-dbt_3x3_17L_fa_int_full_107_450000K.data
System init for write_data ...
PPPM initialization ...
  using 12-bit tables for long-range coulomb (../kspace.cpp:340)
  G vector (1/distance) = 0.28992484
  grid = 40 40 160
  stencil order = 5
  estimated absolute RMS force accuracy = 0.0003575219
  estimated relative force accuracy = 1.0766666e-06
  using double precision KISS FFT
  3d grid and FFT values/proc = 100920 46800

next temp
jump SELF minimize_temp

  variable ftemp equal v_temp

  # Minimize top formate
  fix freeze immo_top_fa setforce 0.0 0.0 0.0
  minimize 1.0e-6 1.0e-9 1000 10000
PPPM initialization ...
  using 12-bit tables for long-range coulomb (../kspace.cpp:340)
  G vector (1/distance) = 0.28992484
  grid = 40 40 160
  stencil order = 5
  estimated absolute RMS force accuracy = 0.0003575219
  estimated relative force accuracy = 1.0766666e-06
  using double precision KISS FFT
  3d grid and FFT values/proc = 100920 46800
Per MPI rank memory allocation (min/avg/max) = 12.80 | 14.60 | 19.22 Mbytes
Step Temp PotEng 
  194511            0   -208547.11 
  194531            0   -208624.15 
Loop time of 0.364346 on 20 procs for 20 steps with 1332 atoms

99.4% CPU use with 20 MPI tasks x no OpenMP threads

Minimization stats:
  Stopping criterion = energy tolerance
  Energy initial, next-to-last, final = 
     -208547.110910065     -208623.980522  -208624.149037955
  Force two-norm initial, final = 149.83277 17.666151
  Force max component initial, final = 47.170984 7.9942022
  Final line search alpha, max atom move = 0.011769369 0.094086717
  Iterations, force evaluations = 20 38

MPI task timing breakdown:
Section |  min time  |  avg time  |  max time  |%varavg| %total
---------------------------------------------------------------
Pair    | 2.4714e-05 | 0.029989   | 0.10827    |  22.6 |  8.23
Bond    | 4.1677e-05 | 0.00017584 | 0.00041385 |   0.0 |  0.05
Kspace  | 0.24465    | 0.32285    | 0.3535     |   6.9 | 88.61
Neigh   | 0          | 0          | 0          |   0.0 |  0.00
Comm    | 0.0046606  | 0.0072461  | 0.0097313  |   2.2 |  1.99
Output  | 0          | 0          | 0          |   0.0 |  0.00
Modify  | 2.9891e-05 | 5.0964e-05 | 7.4705e-05 |   0.0 |  0.01
Other   |            | 0.004032   |            |       |  1.11

Nlocal:        66.6000 ave         216 max           0 min
Histogram: 8 0 8 0 0 0 0 0 0 4
Nghost:        2084.30 ave        3160 max         857 min
Histogram: 8 0 0 0 0 0 0 0 8 4
Neighs:        27305.7 ave      102178 max           0 min
Histogram: 8 4 4 0 0 0 0 0 0 4
FullNghs:      54640.8 ave      197721 max           0 min
Histogram: 8 8 0 0 0 0 0 0 0 4

Total # of neighbors = 1092816
Ave neighs/atom = 820.43243
Ave special neighs/atom = 0.43243243
Neighbor list builds = 0
Dangerous builds = 0
  min_modify integrator eulerexplicit tmax 10.0 tmin 0.0 delaystep 5           dtgrow 1.1 dtshrink 0.5 alpha0 0.1 alphashrink 0.99           vdfmax 100000 halfstepback no initialdelay no
  unfix freeze

  # Minimize top ho
  fix freeze immo_top_ho setforce 0.0 0.0 0.0
  minimize 1.0e-6 1.0e-9 1000 10000
PPPM initialization ...
  using 12-bit tables for long-range coulomb (../kspace.cpp:340)
  G vector (1/distance) = 0.28992484
  grid = 40 40 160
  stencil order = 5
  estimated absolute RMS force accuracy = 0.0003575219
  estimated relative force accuracy = 1.0766666e-06
  using double precision KISS FFT
  3d grid and FFT values/proc = 100920 46800
Per MPI rank memory allocation (min/avg/max) = 12.80 | 14.60 | 19.22 Mbytes
Step Temp PotEng 
  194531            0   -208624.15 
  194539            0   -208686.37 
Loop time of 0.159505 on 20 procs for 8 steps with 1332 atoms

99.2% CPU use with 20 MPI tasks x no OpenMP threads

Minimization stats:
  Stopping criterion = energy tolerance
  Energy initial, next-to-last, final = 
     -208624.149037955  -208686.200412203  -208686.372220137
  Force two-norm initial, final = 285.39908 14.318903
  Force max component initial, final = 71.487262 4.3515322
  Final line search alpha, max atom move = 0.022162347 0.096440166
  Iterations, force evaluations = 8 16

MPI task timing breakdown:
Section |  min time  |  avg time  |  max time  |%varavg| %total
---------------------------------------------------------------
Pair    | 1.452e-05  | 0.013058   | 0.047231   |  15.0 |  8.19
Bond    | 2.0161e-05 | 7.4018e-05 | 0.00017059 |   0.0 |  0.05
Kspace  | 0.10689    | 0.14112    | 0.15451    |   4.6 | 88.47
Neigh   | 0          | 0          | 0          |   0.0 |  0.00
Comm    | 0.0019707  | 0.0031861  | 0.0043097  |   1.5 |  2.00
Output  | 0          | 0          | 0          |   0.0 |  0.00
Modify  | 1.536e-05  | 2.5054e-05 | 4.1415e-05 |   0.0 |  0.02
Other   |            | 0.002045   |            |       |  1.28

Nlocal:        66.6000 ave         216 max           0 min
Histogram: 8 0 8 0 0 0 0 0 0 4
Nghost:        2084.75 ave        3161 max         859 min
Histogram: 8 0 0 0 0 0 0 0 8 4
Neighs:        27311.0 ave      102191 max           0 min
Histogram: 8 4 4 0 0 0 0 0 0 4
FullNghs:      54640.8 ave      197721 max           0 min
Histogram: 8 8 0 0 0 0 0 0 0 4

Total # of neighbors = 1092816
Ave neighs/atom = 820.43243
Ave special neighs/atom = 0.43243243
Neighbor list builds = 0
Dangerous builds = 0
  min_modify integrator eulerexplicit tmax 10.0 tmin 0.0 delaystep 5           dtgrow 1.1 dtshrink 0.5 alpha0 0.1 alphashrink 0.99           vdfmax 100000 halfstepback no initialdelay no
  unfix freeze

  # Minimize bottom formate
  fix freeze immo_bottom_fa setforce 0.0 0.0 0.0
  minimize 1.0e-6 1.0e-9 1000 10000
PPPM initialization ...
  using 12-bit tables for long-range coulomb (../kspace.cpp:340)
  G vector (1/distance) = 0.28992484
  grid = 40 40 160
  stencil order = 5
  estimated absolute RMS force accuracy = 0.0003575219
  estimated relative force accuracy = 1.0766666e-06
  using double precision KISS FFT
  3d grid and FFT values/proc = 100920 46800
Per MPI rank memory allocation (min/avg/max) = 12.80 | 14.60 | 19.22 Mbytes
Step Temp PotEng 
  194539            0   -208686.37 
  194561            0    -208744.2 
Loop time of 0.411891 on 20 procs for 22 steps with 1332 atoms

99.1% CPU use with 20 MPI tasks x no OpenMP threads

Minimization stats:
  Stopping criterion = energy tolerance
  Energy initial, next-to-last, final = 
     -208686.372220137  -208744.130282395  -208744.204357626
  Force two-norm initial, final = 164.48852 15.179150
  Force max component initial, final = 58.796387 5.0605127
  Final line search alpha, max atom move = 0.010644678 0.053867526
  Iterations, force evaluations = 22 43

MPI task timing breakdown:
Section |  min time  |  avg time  |  max time  |%varavg| %total
---------------------------------------------------------------
Pair    | 2.9329e-05 | 0.033817   | 0.12213    |  24.0 |  8.21
Bond    | 5.1397e-05 | 0.00019068 | 0.00042328 |   0.0 |  0.05
Kspace  | 0.27691    | 0.36516    | 0.39968    |   7.3 | 88.65
Neigh   | 0          | 0          | 0          |   0.0 |  0.00
Comm    | 0.0052473  | 0.0081703  | 0.01102    |   2.4 |  1.98
Output  | 0          | 0          | 0          |   0.0 |  0.00
Modify  | 3.7207e-05 | 5.9204e-05 | 8.3963e-05 |   0.0 |  0.01
Other   |            | 0.004495   |            |       |  1.09

Nlocal:        66.6000 ave         216 max           0 min
Histogram: 8 0 8 0 0 0 0 0 0 4
Nghost:        2084.75 ave        3161 max         859 min
Histogram: 8 0 0 0 0 0 0 0 8 4
Neighs:        27311.5 ave      102195 max           0 min
Histogram: 8 4 4 0 0 0 0 0 0 4
FullNghs:      54640.8 ave      197721 max           0 min
Histogram: 8 8 0 0 0 0 0 0 0 4

Total # of neighbors = 1092816
Ave neighs/atom = 820.43243
Ave special neighs/atom = 0.43243243
Neighbor list builds = 0
Dangerous builds = 0
  min_modify integrator eulerexplicit tmax 10.0 tmin 0.0 delaystep 5           dtgrow 1.1 dtshrink 0.5 alpha0 0.1 alphashrink 0.99           vdfmax 100000 halfstepback no initialdelay no
  unfix freeze

  # Minimize bottom ho
  fix freeze immo_bottom_ho setforce 0.0 0.0 0.0
  minimize 1.0e-6 1.0e-9 1000 10000
PPPM initialization ...
  using 12-bit tables for long-range coulomb (../kspace.cpp:340)
  G vector (1/distance) = 0.28992484
  grid = 40 40 160
  stencil order = 5
  estimated absolute RMS force accuracy = 0.0003575219
  estimated relative force accuracy = 1.0766666e-06
  using double precision KISS FFT
  3d grid and FFT values/proc = 100920 46800
Per MPI rank memory allocation (min/avg/max) = 12.80 | 14.60 | 19.22 Mbytes
Step Temp PotEng 
  194561            0    -208744.2 
  194570            0   -208814.31 
Loop time of 0.178052 on 20 procs for 9 steps with 1332 atoms

99.4% CPU use with 20 MPI tasks x no OpenMP threads

Minimization stats:
  Stopping criterion = energy tolerance
  Energy initial, next-to-last, final = 
     -208744.204357626   -208814.13826669  -208814.312840424
  Force two-norm initial, final = 289.41466 11.994991
  Force max component initial, final = 93.206141 3.1014013
  Final line search alpha, max atom move = 0.011548556 0.035816705
  Iterations, force evaluations = 9 18

MPI task timing breakdown:
Section |  min time  |  avg time  |  max time  |%varavg| %total
---------------------------------------------------------------
Pair    | 1.6157e-05 | 0.014589   | 0.052686   |  15.8 |  8.19
Bond    | 2.1697e-05 | 8.3577e-05 | 0.00018262 |   0.0 |  0.05
Kspace  | 0.11966    | 0.15776    | 0.17267    |   4.8 | 88.60
Neigh   | 0          | 0          | 0          |   0.0 |  0.00
Comm    | 0.0021739  | 0.0034254  | 0.0046422  |   1.6 |  1.92
Output  | 0          | 0          | 0          |   0.0 |  0.00
Modify  | 1.6329e-05 | 2.5098e-05 | 3.5791e-05 |   0.0 |  0.01
Other   |            | 0.002171   |            |       |  1.22

Nlocal:        66.6000 ave         216 max           0 min
Histogram: 8 0 8 0 0 0 0 0 0 4
Nghost:        2084.30 ave        3160 max         859 min
Histogram: 8 0 0 0 0 0 0 0 8 4
Neighs:        27311.7 ave      102200 max           0 min
Histogram: 8 4 4 0 0 0 0 0 0 4
FullNghs:      54640.8 ave      197721 max           0 min
Histogram: 8 8 0 0 0 0 0 0 0 4

Total # of neighbors = 1092816
Ave neighs/atom = 820.43243
Ave special neighs/atom = 0.43243243
Neighbor list builds = 0
Dangerous builds = 0
  min_modify integrator eulerexplicit tmax 10.0 tmin 0.0 delaystep 5           dtgrow 1.1 dtshrink 0.5 alpha0 0.1 alphashrink 0.99           vdfmax 100000 halfstepback no initialdelay no
  unfix freeze

  # Electrostatic relaxation
  fix  swp feo atom/swap 1 1 ${rand} ${temp} ke no types 6 7
  fix  swp feo atom/swap 1 1 4574249 ${temp} ke no types 6 7
  fix  swp feo atom/swap 1 1 4574249 405000 ke no types 6 7
  thermo 1000
  thermo_style custom step v_ftemp v_cnum pe f_swp[1] f_swp[2] v_rfet3 v_rfeo3
  run ${nsteps}
  run 32400
PPPM initialization ...
  using 12-bit tables for long-range coulomb (../kspace.cpp:340)
  G vector (1/distance) = 0.28992484
  grid = 40 40 160
  stencil order = 5
  estimated absolute RMS force accuracy = 0.0003575219
  estimated relative force accuracy = 1.0766666e-06
  using double precision KISS FFT
  3d grid and FFT values/proc = 100920 46800
Per MPI rank memory allocation (min/avg/max) = 11.68 | 13.48 | 18.09 Mbytes
Step v_ftemp v_cnum PotEng f_swp[1] f_swp[2] v_rfet3 v_rfeo3 
  194570       405000          107   -208814.31            0            0            1          0.7 
  195000       405000          107    -208945.6          430          308            1          0.7 
  196000       405000          107   -208574.04         1430         1012            1          0.7 
  197000       405000          107   -208755.66         2430         1737            1          0.7 
  198000       405000          107   -208429.84         3430         2431            1          0.7 
  199000       405000          107   -209151.49         4430         3110            1          0.7 
  200000       405000          107   -208667.53         5430         3807            1          0.7 
  201000       405000          107   -208407.26         6430         4523            1          0.7 
  202000       405000          107   -208486.02         7430         5231            1          0.7 
  203000       405000          107   -209099.17         8430         5964            1          0.7 
  204000       405000          107   -208643.31         9430         6672            1          0.7 
  205000       405000          107   -208123.87        10430         7369            1          0.7 
  206000       405000          107   -208761.18        11430         8064            1          0.7 
  207000       405000          107   -208300.39        12430         8765            1          0.7 
  208000       405000          107   -209138.55        13430         9463            1          0.7 
  209000       405000          107   -208886.28        14430        10164            1          0.7 
  210000       405000          107   -209019.65        15430        10859            1          0.7 
  211000       405000          107   -208919.42        16430        11575            1          0.7 
  212000       405000          107   -208589.25        17430        12251            1          0.7 
  213000       405000          107   -208807.55        18430        12957            1          0.7 
  214000       405000          107   -208172.76        19430        13666            1          0.7 
  215000       405000          107   -208298.85        20430        14367            1          0.7 
  216000       405000          107   -208740.44        21430        15063            1          0.7 
  217000       405000          107   -207978.89        22430        15754            1          0.7 
  218000       405000          107   -208312.94        23430        16461            1          0.7 
  219000       405000          107   -208895.88        24430        17180            1          0.7 
  220000       405000          107   -209043.21        25430        17876            1          0.7 
  221000       405000          107   -207882.05        26430        18587            1          0.7 
  222000       405000          107   -209519.17        27430        19300            1          0.7 
  223000       405000          107   -206772.81        28430        19993            1          0.7 
  224000       405000          107   -208508.91        29430        20679            1          0.7 
  225000       405000          107   -207963.43        30430        21363            1          0.7 
  226000       405000          107   -208527.67        31430        22060            1          0.7 
  226970       405000          107   -208313.17        32400        22724            1          0.7 
Loop time of 1313.48 on 20 procs for 32400 steps with 1332 atoms

Performance: 1.066 ns/day, 22.522 hours/ns, 24.667 timesteps/s
99.4% CPU use with 20 MPI tasks x no OpenMP threads

MPI task timing breakdown:
Section |  min time  |  avg time  |  max time  |%varavg| %total
---------------------------------------------------------------
Pair    | 0.016012   | 16.47      | 59.776     | 531.8 |  1.25
Bond    | 0.018409   | 0.10303    | 0.2481     |  30.2 |  0.01
Kspace  | 203        | 246.39     | 263.13     | 138.2 | 18.76
Neigh   | 67.875     | 68.091     | 68.498     |   2.4 |  5.18
Comm    | 12.045     | 14.158     | 16.181     |  41.2 |  1.08
Output  | 0.0040112  | 0.0061746  | 0.0089406  |   2.1 |  0.00
Modify  | 965.87     | 967.88     | 969.63     |   4.8 | 73.69
Other   |            | 0.3784     |            |       |  0.03

Nlocal:        66.6000 ave         216 max           0 min
Histogram: 8 0 8 0 0 0 0 0 0 4
Nghost:        2084.30 ave        3160 max         859 min
Histogram: 8 0 0 0 0 0 0 0 8 4
Neighs:        27311.7 ave      102206 max           0 min
Histogram: 8 4 4 0 0 0 0 0 0 4
FullNghs:      54640.8 ave      197721 max           0 min
Histogram: 8 8 0 0 0 0 0 0 0 4

Total # of neighbors = 1092816
Ave neighs/atom = 820.43243
Ave special neighs/atom = 0.43243243
Neighbor list builds = 64800
Dangerous builds = 0

  variable cnum equal (${cnum}-1)
  variable cnum equal (107-1)

  unfix swp
  thermo_style custom step temp pe
  write_data  001-dbt_3x3_${layer}L_fa_${type}_${cnum}_${temp}K.data
  write_data  001-dbt_3x3_17L_fa_${type}_${cnum}_${temp}K.data
  write_data  001-dbt_3x3_17L_fa_int_full_${cnum}_${temp}K.data
  write_data  001-dbt_3x3_17L_fa_int_full_106_${temp}K.data
  write_data  001-dbt_3x3_17L_fa_int_full_106_405000K.data
System init for write_data ...
PPPM initialization ...
  using 12-bit tables for long-range coulomb (../kspace.cpp:340)
  G vector (1/distance) = 0.28992484
  grid = 40 40 160
  stencil order = 5
  estimated absolute RMS force accuracy = 0.0003575219
  estimated relative force accuracy = 1.0766666e-06
  using double precision KISS FFT
  3d grid and FFT values/proc = 100920 46800

next temp
jump SELF minimize_temp

  variable ftemp equal v_temp

  # Minimize top formate
  fix freeze immo_top_fa setforce 0.0 0.0 0.0
  minimize 1.0e-6 1.0e-9 1000 10000
PPPM initialization ...
  using 12-bit tables for long-range coulomb (../kspace.cpp:340)
  G vector (1/distance) = 0.28992484
  grid = 40 40 160
  stencil order = 5
  estimated absolute RMS force accuracy = 0.0003575219
  estimated relative force accuracy = 1.0766666e-06
  using double precision KISS FFT
  3d grid and FFT values/proc = 100920 46800
Per MPI rank memory allocation (min/avg/max) = 12.80 | 14.60 | 19.22 Mbytes
Step Temp PotEng 
  226970            0   -208313.17 
  226982            0   -208336.97 
Loop time of 0.233223 on 20 procs for 12 steps with 1332 atoms

99.6% CPU use with 20 MPI tasks x no OpenMP threads

Minimization stats:
  Stopping criterion = energy tolerance
  Energy initial, next-to-last, final = 
     -208313.165221377  -208336.846960505   -208336.96890143
  Force two-norm initial, final = 116.19505 14.019750
  Force max component initial, final = 53.569272 3.3647393
  Final line search alpha, max atom move = 0.0055113527 0.018544265
  Iterations, force evaluations = 12 24

MPI task timing breakdown:
Section |  min time  |  avg time  |  max time  |%varavg| %total
---------------------------------------------------------------
Pair    | 1.9196e-05 | 0.019281   | 0.069654   |  18.1 |  8.27
Bond    | 2.6865e-05 | 0.00011167 | 0.00024571 |   0.0 |  0.05
Kspace  | 0.15599    | 0.20637    | 0.22607    |   5.5 | 88.49
Neigh   | 0          | 0          | 0          |   0.0 |  0.00
Comm    | 0.002988   | 0.0046828  | 0.0062646  |   1.8 |  2.01
Output  | 0          | 0          | 0          |   0.0 |  0.00
Modify  | 2.465e-05  | 3.4507e-05 | 5.6465e-05 |   0.0 |  0.01
Other   |            | 0.002743   |            |       |  1.18

Nlocal:        66.6000 ave         216 max           0 min
Histogram: 8 0 8 0 0 0 0 0 0 4
Nghost:        2084.30 ave        3160 max         859 min
Histogram: 8 0 0 0 0 0 0 0 8 4
Neighs:        27311.7 ave      102206 max           0 min
Histogram: 8 4 4 0 0 0 0 0 0 4
FullNghs:      54640.8 ave      197721 max           0 min
Histogram: 8 8 0 0 0 0 0 0 0 4

Total # of neighbors = 1092816
Ave neighs/atom = 820.43243
Ave special neighs/atom = 0.43243243
Neighbor list builds = 0
Dangerous builds = 0
  min_modify integrator eulerexplicit tmax 10.0 tmin 0.0 delaystep 5           dtgrow 1.1 dtshrink 0.5 alpha0 0.1 alphashrink 0.99           vdfmax 100000 halfstepback no initialdelay no
  unfix freeze

  # Minimize top ho
  fix freeze immo_top_ho setforce 0.0 0.0 0.0
  minimize 1.0e-6 1.0e-9 1000 10000
PPPM initialization ...
  using 12-bit tables for long-range coulomb (../kspace.cpp:340)
  G vector (1/distance) = 0.28992484
  grid = 40 40 160
  stencil order = 5
  estimated absolute RMS force accuracy = 0.0003575219
  estimated relative force accuracy = 1.0766666e-06
  using double precision KISS FFT
  3d grid and FFT values/proc = 100920 46800
Per MPI rank memory allocation (min/avg/max) = 12.80 | 14.60 | 19.22 Mbytes
Step Temp PotEng 
  226982            0   -208336.97 
  226990            0   -208382.69 
Loop time of 0.158915 on 20 procs for 8 steps with 1332 atoms

99.1% CPU use with 20 MPI tasks x no OpenMP threads

Minimization stats:
  Stopping criterion = energy tolerance
  Energy initial, next-to-last, final = 
      -208336.96890143  -208382.512751918   -208382.68938794
  Force two-norm initial, final = 261.22680 16.421470
  Force max component initial, final = 82.962374 4.5240869
  Final line search alpha, max atom move = 0.019860817 0.089852061
  Iterations, force evaluations = 8 16

MPI task timing breakdown:
Section |  min time  |  avg time  |  max time  |%varavg| %total
---------------------------------------------------------------
Pair    | 1.3606e-05 | 0.013055   | 0.047195   |  14.9 |  8.22
Bond    | 2.0878e-05 | 7.599e-05  | 0.00017587 |   0.0 |  0.05
Kspace  | 0.10651    | 0.14066    | 0.15399    |   4.6 | 88.51
Neigh   | 0          | 0          | 0          |   0.0 |  0.00
Comm    | 0.0019695  | 0.0030825  | 0.0041806  |   1.5 |  1.94
Output  | 0          | 0          | 0          |   0.0 |  0.00
Modify  | 1.5763e-05 | 2.2527e-05 | 3.2452e-05 |   0.0 |  0.01
Other   |            | 0.00202    |            |       |  1.27

Nlocal:        66.6000 ave         216 max           0 min
Histogram: 8 0 8 0 0 0 0 0 0 4
Nghost:        2083.10 ave        3157 max         855 min
Histogram: 8 0 0 0 0 0 0 0 8 4
Neighs:        27310.8 ave      102204 max           0 min
Histogram: 8 4 4 0 0 0 0 0 0 4
FullNghs:      54640.8 ave      197721 max           0 min
Histogram: 8 8 0 0 0 0 0 0 0 4

Total # of neighbors = 1092816
Ave neighs/atom = 820.43243
Ave special neighs/atom = 0.43243243
Neighbor list builds = 0
Dangerous builds = 0
  min_modify integrator eulerexplicit tmax 10.0 tmin 0.0 delaystep 5           dtgrow 1.1 dtshrink 0.5 alpha0 0.1 alphashrink 0.99           vdfmax 100000 halfstepback no initialdelay no
  unfix freeze

  # Minimize bottom formate
  fix freeze immo_bottom_fa setforce 0.0 0.0 0.0
  minimize 1.0e-6 1.0e-9 1000 10000
PPPM initialization ...
  using 12-bit tables for long-range coulomb (../kspace.cpp:340)
  G vector (1/distance) = 0.28992484
  grid = 40 40 160
  stencil order = 5
  estimated absolute RMS force accuracy = 0.0003575219
  estimated relative force accuracy = 1.0766666e-06
  using double precision KISS FFT
  3d grid and FFT values/proc = 100920 46800
Per MPI rank memory allocation (min/avg/max) = 12.80 | 14.60 | 19.22 Mbytes
Step Temp PotEng 
  226990            0   -208382.69 
  227000            0   -208432.93 
  227008            0   -208437.83 
Loop time of 0.335315 on 20 procs for 18 steps with 1332 atoms

99.4% CPU use with 20 MPI tasks x no OpenMP threads

Minimization stats:
  Stopping criterion = energy tolerance
  Energy initial, next-to-last, final = 
      -208382.68938794  -208437.652414272   -208437.82565788
  Force two-norm initial, final = 165.21895 19.063486
  Force max component initial, final = 51.097697 4.3969519
  Final line search alpha, max atom move = 0.0053561617 0.023550785
  Iterations, force evaluations = 18 35

MPI task timing breakdown:
Section |  min time  |  avg time  |  max time  |%varavg| %total
---------------------------------------------------------------
Pair    | 2.4411e-05 | 0.027739   | 0.1003     |  21.7 |  8.27
Bond    | 4.2871e-05 | 0.00016225 | 0.00035573 |   0.0 |  0.05
Kspace  | 0.22432    | 0.29689    | 0.32525    |   6.7 | 88.54
Neigh   | 0          | 0          | 0          |   0.0 |  0.00
Comm    | 0.004207   | 0.0065974  | 0.0088776  |   2.2 |  1.97
Output  | 2.6407e-05 | 2.8871e-05 | 6.1411e-05 |   0.0 |  0.01
Modify  | 2.9449e-05 | 4.7374e-05 | 7.4304e-05 |   0.0 |  0.01
Other   |            | 0.003848   |            |       |  1.15

Nlocal:        66.6000 ave         216 max           0 min
Histogram: 8 0 8 0 0 0 0 0 0 4
Nghost:        2083.10 ave        3157 max         855 min
Histogram: 8 0 0 0 0 0 0 0 8 4
Neighs:        27311.1 ave      102193 max           0 min
Histogram: 8 4 4 0 0 0 0 0 0 4
FullNghs:      54640.8 ave      197721 max           0 min
Histogram: 8 8 0 0 0 0 0 0 0 4

Total # of neighbors = 1092816
Ave neighs/atom = 820.43243
Ave special neighs/atom = 0.43243243
Neighbor list builds = 0
Dangerous builds = 0
  min_modify integrator eulerexplicit tmax 10.0 tmin 0.0 delaystep 5           dtgrow 1.1 dtshrink 0.5 alpha0 0.1 alphashrink 0.99           vdfmax 100000 halfstepback no initialdelay no
  unfix freeze

  # Minimize bottom ho
  fix freeze immo_bottom_ho setforce 0.0 0.0 0.0
  minimize 1.0e-6 1.0e-9 1000 10000
PPPM initialization ...
  using 12-bit tables for long-range coulomb (../kspace.cpp:340)
  G vector (1/distance) = 0.28992484
  grid = 40 40 160
  stencil order = 5
  estimated absolute RMS force accuracy = 0.0003575219
  estimated relative force accuracy = 1.0766666e-06
  using double precision KISS FFT
  3d grid and FFT values/proc = 100920 46800
Per MPI rank memory allocation (min/avg/max) = 12.80 | 14.60 | 19.22 Mbytes
Step Temp PotEng 
  227008            0   -208437.83 
  227018            0   -208503.23 
Loop time of 0.195269 on 20 procs for 10 steps with 1332 atoms

99.1% CPU use with 20 MPI tasks x no OpenMP threads

Minimization stats:
  Stopping criterion = energy tolerance
[...]
 3625000            2            2   -211278.12        26542            0            1          0.7 
 3626000            2            2   -211278.12        27542            0            1          0.7 
 3627000            2            2   -211278.12        28542            0            1          0.7 
 3628000            2            2   -211278.12        29542            0            1          0.7 
 3629000            2            2   -211278.12        30542            0            1          0.7 
 3630000            2            2   -211278.12        31542            0            1          0.7 
 3630858            2            2   -211278.12        32400            0            1          0.7 
Loop time of 996.978 on 20 procs for 32400 steps with 1332 atoms

Performance: 1.404 ns/day, 17.095 hours/ns, 32.498 timesteps/s
99.4% CPU use with 20 MPI tasks x no OpenMP threads

MPI task timing breakdown:
Section |  min time  |  avg time  |  max time  |%varavg| %total
---------------------------------------------------------------
Pair    | 0.011647   | 12.78      | 46.994     | 470.0 |  1.28
Bond    | 0.013331   | 0.077212   | 0.17752    |  24.0 |  0.01
Kspace  | 151.16     | 185.44     | 198.42     | 124.0 | 18.60
Neigh   | 52.904     | 53.134     | 53.451     |   2.2 |  5.33
Comm    | 9.8201     | 11.508     | 13.186     |  36.8 |  1.15
Output  | 0.0035938  | 0.0053146  | 0.0074511  |   1.8 |  0.00
Modify  | 732.12     | 733.73     | 735.13     |   4.4 | 73.60
Other   |            | 0.3034     |            |       |  0.03

Nlocal:        66.6000 ave         216 max           0 min
Histogram: 8 0 8 0 0 0 0 0 0 4
Nghost:        2084.30 ave        3158 max         861 min
Histogram: 8 0 0 0 0 0 0 0 8 4
Neighs:        27307.2 ave      102193 max           0 min
Histogram: 9 3 4 0 0 0 0 0 0 4
FullNghs:      54640.8 ave      197721 max           0 min
Histogram: 8 8 0 0 0 0 0 0 0 4

Total # of neighbors = 1092816
Ave neighs/atom = 820.43243
Ave special neighs/atom = 0.43243243
Neighbor list builds = 64800
Dangerous builds = 0

  variable cnum equal (${cnum}-1)
  variable cnum equal (2-1)

  unfix swp
  thermo_style custom step temp pe
  write_data  001-dbt_3x3_${layer}L_fa_${type}_${cnum}_${temp}K.data
  write_data  001-dbt_3x3_17L_fa_${type}_${cnum}_${temp}K.data
  write_data  001-dbt_3x3_17L_fa_int_full_${cnum}_${temp}K.data
  write_data  001-dbt_3x3_17L_fa_int_full_1_${temp}K.data
  write_data  001-dbt_3x3_17L_fa_int_full_1_2K.data
System init for write_data ...
PPPM initialization ...
  using 12-bit tables for long-range coulomb (../kspace.cpp:340)
  G vector (1/distance) = 0.28992484
  grid = 40 40 160
  stencil order = 5
  estimated absolute RMS force accuracy = 0.0003575219
  estimated relative force accuracy = 1.0766666e-06
  using double precision KISS FFT
  3d grid and FFT values/proc = 100920 46800

next temp
jump SELF minimize_temp

  variable ftemp equal v_temp

  # Minimize top formate
  fix freeze immo_top_fa setforce 0.0 0.0 0.0
  minimize 1.0e-6 1.0e-9 1000 10000
PPPM initialization ...
  using 12-bit tables for long-range coulomb (../kspace.cpp:340)
  G vector (1/distance) = 0.28992484
  grid = 40 40 160
  stencil order = 5
  estimated absolute RMS force accuracy = 0.0003575219
  estimated relative force accuracy = 1.0766666e-06
  using double precision KISS FFT
  3d grid and FFT values/proc = 100920 46800
Per MPI rank memory allocation (min/avg/max) = 12.80 | 14.60 | 19.22 Mbytes
Step Temp PotEng 
 3630858            0   -211278.12 
 3630859            0   -211278.12 
Loop time of 0.0215783 on 20 procs for 1 steps with 1332 atoms

99.9% CPU use with 20 MPI tasks x no OpenMP threads

Minimization stats:
  Stopping criterion = energy tolerance
  Energy initial, next-to-last, final = 
     -211278.118590798  -211278.118590798  -211278.119365938
  Force two-norm initial, final = 1.8497300 1.2020319
  Force max component initial, final = 0.49729180 0.29926530
  Final line search alpha, max atom move = 0.20108918 0.060179014
  Iterations, force evaluations = 1 2

MPI task timing breakdown:
Section |  min time  |  avg time  |  max time  |%varavg| %total
---------------------------------------------------------------
Pair    | 5.189e-06  | 0.0018199  | 0.0064404  |   5.5 |  8.43
Bond    | 3.027e-06  | 1.134e-05  | 3.7218e-05 |   0.0 |  0.05
Kspace  | 0.014077   | 0.018694   | 0.02055    |   1.7 | 86.64
Neigh   | 0          | 0          | 0          |   0.0 |  0.00
Comm    | 0.00027694 | 0.00043167 | 0.00058312 |   0.0 |  2.00
Output  | 0          | 0          | 0          |   0.0 |  0.00
Modify  | 1.974e-06  | 3.1167e-06 | 4.521e-06  |   0.0 |  0.01
Other   |            | 0.0006178  |            |       |  2.86

Nlocal:        66.6000 ave         216 max           0 min
Histogram: 8 0 8 0 0 0 0 0 0 4
Nghost:        2084.30 ave        3158 max         861 min
Histogram: 8 0 0 0 0 0 0 0 8 4
Neighs:        27307.2 ave      102193 max           0 min
Histogram: 9 3 4 0 0 0 0 0 0 4
FullNghs:      54640.8 ave      197721 max           0 min
Histogram: 8 8 0 0 0 0 0 0 0 4

Total # of neighbors = 1092816
Ave neighs/atom = 820.43243
Ave special neighs/atom = 0.43243243
Neighbor list builds = 0
Dangerous builds = 0
  min_modify integrator eulerexplicit tmax 10.0 tmin 0.0 delaystep 5           dtgrow 1.1 dtshrink 0.5 alpha0 0.1 alphashrink 0.99           vdfmax 100000 halfstepback no initialdelay no
  unfix freeze

  # Minimize top ho
  fix freeze immo_top_ho setforce 0.0 0.0 0.0
  minimize 1.0e-6 1.0e-9 1000 10000
PPPM initialization ...
  using 12-bit tables for long-range coulomb (../kspace.cpp:340)
  G vector (1/distance) = 0.28992484
  grid = 40 40 160
  stencil order = 5
  estimated absolute RMS force accuracy = 0.0003575219
  estimated relative force accuracy = 1.0766666e-06
  using double precision KISS FFT
  3d grid and FFT values/proc = 100920 46800
Per MPI rank memory allocation (min/avg/max) = 12.80 | 14.60 | 19.22 Mbytes
Step Temp PotEng 
 3630859            0   -211278.12 
 3630860            0   -211278.12 
Loop time of 0.0633076 on 20 procs for 1 steps with 1332 atoms

99.6% CPU use with 20 MPI tasks x no OpenMP threads

Minimization stats:
  Stopping criterion = energy tolerance
  Energy initial, next-to-last, final = 
     -211278.119365938  -211278.119365938  -211278.119377555
  Force two-norm initial, final = 0.23172834 0.33365632
  Force max component initial, final = 0.064800351 0.10439198
  Final line search alpha, max atom move = 0.12500000 0.013048997
  Iterations, force evaluations = 1 8

MPI task timing breakdown:
Section |  min time  |  avg time  |  max time  |%varavg| %total
---------------------------------------------------------------
Pair    | 7.589e-06  | 0.0053035  | 0.019233   |   9.5 |  8.38
Bond    | 7.295e-06  | 2.8057e-05 | 5.9061e-05 |   0.0 |  0.04
Kspace  | 0.04175    | 0.055685   | 0.0611     |   2.9 | 87.96
Neigh   | 0          | 0          | 0          |   0.0 |  0.00
Comm    | 0.00081848 | 0.0012891  | 0.0017408  |   1.0 |  2.04
Output  | 0          | 0          | 0          |   0.0 |  0.00
Modify  | 4.6181e-06 | 9.0748e-06 | 1.3681e-05 |   0.0 |  0.01
Other   |            | 0.0009928  |            |       |  1.57

Nlocal:        66.6000 ave         216 max           0 min
Histogram: 8 0 8 0 0 0 0 0 0 4
Nghost:        2084.30 ave        3158 max         861 min
Histogram: 8 0 0 0 0 0 0 0 8 4
Neighs:        27307.2 ave      102193 max           0 min
Histogram: 9 3 4 0 0 0 0 0 0 4
FullNghs:      54640.8 ave      197721 max           0 min
Histogram: 8 8 0 0 0 0 0 0 0 4

Total # of neighbors = 1092816
Ave neighs/atom = 820.43243
Ave special neighs/atom = 0.43243243
Neighbor list builds = 0
Dangerous builds = 0
  min_modify integrator eulerexplicit tmax 10.0 tmin 0.0 delaystep 5           dtgrow 1.1 dtshrink 0.5 alpha0 0.1 alphashrink 0.99           vdfmax 100000 halfstepback no initialdelay no
  unfix freeze

  # Minimize bottom formate
  fix freeze immo_bottom_fa setforce 0.0 0.0 0.0
  minimize 1.0e-6 1.0e-9 1000 10000
PPPM initialization ...
  using 12-bit tables for long-range coulomb (../kspace.cpp:340)
  G vector (1/distance) = 0.28992484
  grid = 40 40 160
  stencil order = 5
  estimated absolute RMS force accuracy = 0.0003575219
  estimated relative force accuracy = 1.0766666e-06
  using double precision KISS FFT
  3d grid and FFT values/proc = 100920 46800
Per MPI rank memory allocation (min/avg/max) = 12.80 | 14.60 | 19.22 Mbytes
Step Temp PotEng 
 3630860            0   -211278.12 
 3630861            0   -211278.12 
Loop time of 0.0214836 on 20 procs for 1 steps with 1332 atoms

99.9% CPU use with 20 MPI tasks x no OpenMP threads

Minimization stats:
  Stopping criterion = energy tolerance
  Energy initial, next-to-last, final = 
     -211278.119377555  -211278.119377555  -211278.120762096
  Force two-norm initial, final = 1.5214524 2.0802891
  Force max component initial, final = 0.43246772 0.48934654
  Final line search alpha, max atom move = 0.23123113 0.11315215
  Iterations, force evaluations = 1 2

MPI task timing breakdown:
Section |  min time  |  avg time  |  max time  |%varavg| %total
---------------------------------------------------------------
Pair    | 5.33e-06   | 0.0017862  | 0.0063798  |   5.5 |  8.31
Bond    | 3.374e-06  | 1.0179e-05 | 2.0849e-05 |   0.0 |  0.05
Kspace  | 0.014067   | 0.018664   | 0.020485   |   1.7 | 86.88
Neigh   | 0          | 0          | 0          |   0.0 |  0.00
Comm    | 0.00027006 | 0.0004275  | 0.00058289 |   0.0 |  1.99
Output  | 0          | 0          | 0          |   0.0 |  0.00
Modify  | 1.918e-06  | 3.2009e-06 | 4.246e-06  |   0.0 |  0.01
Other   |            | 0.0005925  |            |       |  2.76

Nlocal:        66.6000 ave         216 max           0 min
Histogram: 8 0 8 0 0 0 0 0 0 4
Nghost:        2084.30 ave        3158 max         861 min
Histogram: 8 0 0 0 0 0 0 0 8 4
Neighs:        27307.2 ave      102193 max           0 min
Histogram: 9 3 4 0 0 0 0 0 0 4
FullNghs:      54640.8 ave      197721 max           0 min
Histogram: 8 8 0 0 0 0 0 0 0 4

Total # of neighbors = 1092816
Ave neighs/atom = 820.43243
Ave special neighs/atom = 0.43243243
Neighbor list builds = 0
Dangerous builds = 0
  min_modify integrator eulerexplicit tmax 10.0 tmin 0.0 delaystep 5           dtgrow 1.1 dtshrink 0.5 alpha0 0.1 alphashrink 0.99           vdfmax 100000 halfstepback no initialdelay no
  unfix freeze

  # Minimize bottom ho
  fix freeze immo_bottom_ho setforce 0.0 0.0 0.0
  minimize 1.0e-6 1.0e-9 1000 10000
PPPM initialization ...
  using 12-bit tables for long-range coulomb (../kspace.cpp:340)
  G vector (1/distance) = 0.28992484
  grid = 40 40 160
  stencil order = 5
  estimated absolute RMS force accuracy = 0.0003575219
  estimated relative force accuracy = 1.0766666e-06
  using double precision KISS FFT
  3d grid and FFT values/proc = 100920 46800
Per MPI rank memory allocation (min/avg/max) = 12.80 | 14.60 | 19.22 Mbytes
Step Temp PotEng 
 3630861            0   -211278.12 
 3630862            0   -211278.12 
Loop time of 0.335243 on 20 procs for 1 steps with 1332 atoms

99.3% CPU use with 20 MPI tasks x no OpenMP threads

Minimization stats:
  Stopping criterion = linesearch alpha is zero
  Energy initial, next-to-last, final = 
     -211278.120762096  -211278.120762096  -211278.120762096
  Force two-norm initial, final = 0.26697279 0.26697279
  Force max component initial, final = 0.077571602 0.077571602
  Final line search alpha, max atom move = 1.1920929e-07 9.2472556e-09
  Iterations, force evaluations = 1 47

MPI task timing breakdown:
Section |  min time  |  avg time  |  max time  |%varavg| %total
---------------------------------------------------------------
Pair    | 2.3613e-05 | 0.028203   | 0.10217    |  22.1 |  8.41
Bond    | 3.9005e-05 | 0.00014341 | 0.00029692 |   0.0 |  0.04
Kspace  | 0.22278    | 0.29674    | 0.32553    |   6.8 | 88.51
Neigh   | 0          | 0          | 0          |   0.0 |  0.00
Comm    | 0.0042058  | 0.0066927  | 0.0091169  |   2.2 |  2.00
Output  | 0          | 0          | 0          |   0.0 |  0.00
Modify  | 2.8866e-05 | 4.5152e-05 | 6.8973e-05 |   0.0 |  0.01
Other   |            | 0.003421   |            |       |  1.02

Nlocal:        66.6000 ave         216 max           0 min
Histogram: 8 0 8 0 0 0 0 0 0 4
Nghost:        2084.30 ave        3158 max         861 min
Histogram: 8 0 0 0 0 0 0 0 8 4
Neighs:        27307.3 ave      102193 max           0 min
Histogram: 9 3 4 0 0 0 0 0 0 4
FullNghs:      54640.8 ave      197721 max           0 min
Histogram: 8 8 0 0 0 0 0 0 0 4

Total # of neighbors = 1092816
Ave neighs/atom = 820.43243
Ave special neighs/atom = 0.43243243
Neighbor list builds = 0
Dangerous builds = 0
  min_modify integrator eulerexplicit tmax 10.0 tmin 0.0 delaystep 5           dtgrow 1.1 dtshrink 0.5 alpha0 0.1 alphashrink 0.99           vdfmax 100000 halfstepback no initialdelay no
  unfix freeze

  # Electrostatic relaxation
  fix  swp feo atom/swap 1 1 ${rand} ${temp} ke no types 6 7
  fix  swp feo atom/swap 1 1 4097646 ${temp} ke no types 6 7
  fix  swp feo atom/swap 1 1 4097646 1 ke no types 6 7
  thermo 1000
  thermo_style custom step v_ftemp v_cnum pe f_swp[1] f_swp[2] v_rfet3 v_rfeo3
  run ${nsteps}
  run 32400
PPPM initialization ...
  using 12-bit tables for long-range coulomb (../kspace.cpp:340)
  G vector (1/distance) = 0.28992484
  grid = 40 40 160
  stencil order = 5
  estimated absolute RMS force accuracy = 0.0003575219
  estimated relative force accuracy = 1.0766666e-06
  using double precision KISS FFT
  3d grid and FFT values/proc = 100920 46800
Per MPI rank memory allocation (min/avg/max) = 11.68 | 13.48 | 18.09 Mbytes
Step v_ftemp v_cnum PotEng f_swp[1] f_swp[2] v_rfet3 v_rfeo3 
 3630862            1            1   -211278.12            0            0            1          0.7 
 3631000            1            1   -211278.12          138            0            1          0.7 
 3632000            1            1   -211278.12         1138            0            1          0.7 
 3633000            1            1   -211278.12         2138            0            1          0.7 
 3634000            1            1   -211278.12         3138            0            1          0.7 
 3635000            1            1   -211278.12         4138            0            1          0.7 
 3636000            1            1   -211278.12         5138            0            1          0.7 
 3637000            1            1   -211278.12         6138            0            1          0.7 
 3638000            1            1   -211278.12         7138            0            1          0.7 
 3639000            1            1   -211278.12         8138            0            1          0.7 
 3640000            1            1   -211278.12         9138            0            1          0.7 
 3641000            1            1   -211278.12        10138            0            1          0.7 
 3642000            1            1   -211278.12        11138            0            1          0.7 
 3643000            1            1   -211278.12        12138            0            1          0.7 
 3644000            1            1   -211278.12        13138            0            1          0.7 
 3645000            1            1   -211278.12        14138            0            1          0.7 
 3646000            1            1   -211278.12        15138            0            1          0.7 
 3647000            1            1   -211278.12        16138            0            1          0.7 
 3648000            1            1   -211278.12        17138            0            1          0.7 
 3649000            1            1   -211278.12        18138            0            1          0.7 
 3650000            1            1   -211278.12        19138            0            1          0.7 
 3651000            1            1   -211278.12        20138            0            1          0.7 
 3652000            1            1   -211278.12        21138            0            1          0.7 
 3653000            1            1   -211278.12        22138            0            1          0.7 
 3654000            1            1   -211278.12        23138            0            1          0.7 
 3655000            1            1   -211278.12        24138            0            1          0.7 
 3656000            1            1   -211278.12        25138            0            1          0.7 
 3657000            1            1   -211278.12        26138            0            1          0.7 
 3658000            1            1   -211278.12        27138            0            1          0.7 
 3659000            1            1   -211278.12        28138            0            1          0.7 
 3660000            1            1   -211278.12        29138            0            1          0.7 
 3661000            1            1   -211278.12        30138            0            1          0.7 
 3662000            1            1   -211278.12        31138            0            1          0.7 
 3663000            1            1   -211278.12        32138            0            1          0.7 
 3663262            1            1   -211278.12        32400            0            1          0.7 
Loop time of 994.038 on 20 procs for 32400 steps with 1332 atoms

Performance: 1.408 ns/day, 17.045 hours/ns, 32.594 timesteps/s
99.4% CPU use with 20 MPI tasks x no OpenMP threads

MPI task timing breakdown:
Section |  min time  |  avg time  |  max time  |%varavg| %total
---------------------------------------------------------------
Pair    | 0.010665   | 12.797     | 47.053     | 470.3 |  1.29
Bond    | 0.01354    | 0.075732   | 0.17224    |  23.8 |  0.01
Kspace  | 150.6      | 184.92     | 197.91     | 124.3 | 18.60
Neigh   | 52.89      | 53.109     | 53.459     |   2.3 |  5.34
Comm    | 9.7842     | 11.505     | 13.161     |  36.9 |  1.16
Output  | 0.0032986  | 0.0051067  | 0.0073546  |   1.9 |  0.00
Modify  | 729.71     | 731.32     | 732.71     |   4.4 | 73.57
Other   |            | 0.3        |            |       |  0.03

Nlocal:        66.6000 ave         216 max           0 min
Histogram: 8 0 8 0 0 0 0 0 0 4
Nghost:        2084.30 ave        3158 max         861 min
Histogram: 8 0 0 0 0 0 0 0 8 4
Neighs:        27307.3 ave      102193 max           0 min
Histogram: 9 3 4 0 0 0 0 0 0 4
FullNghs:      54640.8 ave      197721 max           0 min
Histogram: 8 8 0 0 0 0 0 0 0 4

Total # of neighbors = 1092816
Ave neighs/atom = 820.43243
Ave special neighs/atom = 0.43243243
Neighbor list builds = 64800
Dangerous builds = 0

  variable cnum equal (${cnum}-1)
  variable cnum equal (1-1)

  unfix swp
  thermo_style custom step temp pe
  write_data  001-dbt_3x3_${layer}L_fa_${type}_${cnum}_${temp}K.data
  write_data  001-dbt_3x3_17L_fa_${type}_${cnum}_${temp}K.data
  write_data  001-dbt_3x3_17L_fa_int_full_${cnum}_${temp}K.data
  write_data  001-dbt_3x3_17L_fa_int_full_0_${temp}K.data
  write_data  001-dbt_3x3_17L_fa_int_full_0_1K.data
System init for write_data ...
PPPM initialization ...
  using 12-bit tables for long-range coulomb (../kspace.cpp:340)
  G vector (1/distance) = 0.28992484
  grid = 40 40 160
  stencil order = 5
  estimated absolute RMS force accuracy = 0.0003575219
  estimated relative force accuracy = 1.0766666e-06
  using double precision KISS FFT
  3d grid and FFT values/proc = 100920 46800

next temp
jump SELF minimize_temp

write_data  001-dbt_3x3_${layer}L_fa_${type}_qeq.data
write_data  001-dbt_3x3_17L_fa_${type}_qeq.data
write_data  001-dbt_3x3_17L_fa_int_full_qeq.data
System init for write_data ...
PPPM initialization ...
  using 12-bit tables for long-range coulomb (../kspace.cpp:340)
  G vector (1/distance) = 0.28992484
  grid = 40 40 160
  stencil order = 5
  estimated absolute RMS force accuracy = 0.0003575219
  estimated relative force accuracy = 1.0766666e-06
  using double precision KISS FFT
  3d grid and FFT values/proc = 100920 46800

Total wall time: 39:24:11
