LAMMPS (29 Sep 2021 - Update 2)
variable  rand equal round(random(0,1e7,452345))
variable layer index 21

variable temp index 500000 450000 405000 364500 328050 295245 265720 239148 215233 193709 174338 156904 141213 127091 114381 102942 92647 83382 75043 67538 60784 54705 49234 44310 39879 35891 32301 29070 26163 23546 21191 19071 17163 15446 13901 12510 11259 10133 9119 8207 7386 6647 5982 5383 4844 4359 3923 3530 3177 2859 2573 2315 2083 1874 1686 1517 1365 1228 1105 994 894 804 723 650 585 526 473 425 382 343 308 277 249 224 201 180 162 145 130 117 105 94 84 75 67 60 54 48 43 38 34 30 27 24 21 18 16 14 12 10 9 8 7 6 5 4 3 2 1

variable type string tet_full

include settings.lmp
units              real
atom_style         full
timestep	   0.5
boundary	   p p f

pair_style         lj/cut/coul/long 12.0
bond_style         harmonic
angle_style        harmonic
dihedral_style     fourier
improper_style     cvff
kspace_style       pppm 1.0e-6
kspace_modify      slab 3.0

pair_modify        mix arithmetic
special_bonds      amber
neighbor           2.0 bin
neigh_modify       every 1 delay 0 check yes

read_data 001-dbt_3x3_${layer}L_fa_${type}_on_bulk_init.data
read_data 001-dbt_3x3_21L_fa_${type}_on_bulk_init.data
read_data 001-dbt_3x3_21L_fa_tet_full_on_bulk_init.data
Reading data file ...
  orthogonal box = (0.0000000 0.0000000 -41.458422) to (25.440000 25.440000 32.908000)
  2 by 2 by 5 MPI processor grid
  reading atoms ...
  2970 atoms
  reading velocities ...
  2970 velocities
  scanning bonds ...
  3 = max bonds/atom
  scanning angles ...
  3 = max angles/atom
  scanning impropers ...
  1 = max impropers/atom
  reading bonds ...
  72 bonds
  reading angles ...
  108 angles
  reading impropers ...
  18 impropers
Finding 1-2 1-3 1-4 neighbors ...
  special bond factors lj:    0        0        0.5     
  special bond factors coul:  0        0        0.8333333333333334
     3 = max # of 1-2 neighbors
     2 = max # of 1-3 neighbors
     2 = max # of 1-4 neighbors
     3 = max # of special neighbors
  special bonds CPU = 0.001 seconds
  read_data CPU = 0.023 seconds

include ff_formic_acid_fe304.param
#####################-----formic_acid-----######################################

mass  1   12.011   # Sp2 C carbonyl group
mass  2    1.008   # H bonded to non-sp3 carbon with 2 electrwd. group
mass  3   15.9994  # Oxygen with one connected atom
mass  4   15.9994  # Oxygen in hydroxyl group
mass  5    1.008   # Hydroxyl group

pair_coeff  1  1   0.0988  3.31521230994  # c
pair_coeff  2  2   0.0161  2.44729877873  # h5
pair_coeff  3  3   0.1463  3.04812087425  # o
pair_coeff  4  4   0.0930  3.24287133403  # oh
pair_coeff  5  5   0.0047  0.537924646013 # ho

bond_coeff  1  361.80  1.105  # c-h5
bond_coeff  2  652.57  1.218  # c=o
bond_coeff  3  383.13  1.351  # c-oh
bond_coeff  4  563.51  0.973  # o-h

angle_coeff  1   51.617  106.550  # c-oh-ho
angle_coeff  2   65.930  123.650  # h5-c=o
angle_coeff  3   65.262  109.490  # h5-c-oh
angle_coeff  4  115.745  122.100  # o=c-oh

dihedral_coeff  1  1  2.3  2  180.0               # h5-c-oh-ho
dihedral_coeff  2  2  2.3  2  180.0  1.9  1  0.0  # o=c-oh-ho

                              #  h5
                              #  |
improper_coeff  1  10.5 -1 2  #  c
                              # / \
                              # o  oh

#####################-----formate-----###########################################

angle_coeff  5   118.817 130.250  # o-c-o

                              #  h5
                              #  |
improper_coeff  2  10.5 -1 2  #  c
                              # / \
                              # o  o

#####################-----magnetite-----#########################################

mass  6   55.845   # Iron(II)
mass  7   55.845   # Iron(III)
mass  8   15.9994  # Bridging oxygen
mass  9   15.9994  # Hydroxyl oxygen
mass  10   1.008   # Hydroxyl hydrogen

pair_coeff  6  6   9.0298e-07  4.90620  # fe2
pair_coeff  7  7   9.0298e-07  4.90620  # fe3
pair_coeff  8  8   0.1554      3.16554  # ob
pair_coeff  9  9   0.1554      3.16554  # oh
pair_coeff  10 10  0.0         0.0      # ho

bond_coeff  5  554.1349  1.0   # oh-ho
bond_coeff  6    0.0     2.08  # fe-oh (dummy bond)

angle_coeff  6   30.0  109.470  # fe-oh-ho

##################################################################################

dump dmp all custom 10000 swap_${layer}L_${type}.lammpstrj id mol type q x y z
dump dmp all custom 10000 swap_21L_${type}.lammpstrj id mol type q x y z
dump dmp all custom 10000 swap_21L_tet_full.lammpstrj id mol type q x y z
dump_modify dmp sort id

# Formate coated fe ions.
group fe molecule 99
576 atoms in group fe
variable nfe equal count(fe)
variable nsteps equal round((${nfe}*${nfe})/4)
variable nsteps equal round((576*${nfe})/4)
variable nsteps equal round((576*576)/4)

compute coord fe coord/atom cutoff 2.0
dump coord fe custom 1 fe_${layer}L.coord id type c_coord
dump coord fe custom 1 fe_21L.coord id type c_coord
dump_modify coord sort id
run 0
WARNING: No fixes defined, atoms won't move (../verlet.cpp:55)
PPPM initialization ...
  using 12-bit tables for long-range coulomb (../kspace.cpp:340)
  G vector (1/distance) = 0.2958869
  grid = 45 45 200
  stencil order = 5
  estimated absolute RMS force accuracy = 0.00034164501
  estimated relative force accuracy = 1.0288538e-06
  using double precision KISS FFT
  3d grid and FFT values/proc = 144150 77234
Neighbor list info ...
  update every 1 steps, delay 0 steps, check yes
  max neighbors/atom: 2000, page size: 100000
  master list distance cutoff = 14
  ghost atom cutoff = 14
  binsize = 7, bins = 4 4 11
  2 neighbor lists, perpetual/occasional/extra = 1 1 0
  (1) pair lj/cut/coul/long, perpetual
      attributes: half, newton on
      pair build: half/bin/newton
      stencil: half/bin/3d
      bin: standard
  (2) compute coord/atom, occasional
      attributes: full, newton on
      pair build: full/bin
      stencil: full/bin/3d
      bin: standard
Per MPI rank memory allocation (min/avg/max) = 14.15 | 16.93 | 24.55 Mbytes
Step Temp E_pair E_mol TotEng Press 
       0            0   -520412.53    7037.1991   -513375.33   -16385.173 
Loop time of 3.2047e-05 on 20 procs for 0 steps with 2970 atoms

102.5% CPU use with 20 MPI tasks x no OpenMP threads

MPI task timing breakdown:
Section |  min time  |  avg time  |  max time  |%varavg| %total
---------------------------------------------------------------
Pair    | 0          | 0          | 0          |   0.0 |  0.00
Bond    | 0          | 0          | 0          |   0.0 |  0.00
Kspace  | 0          | 0          | 0          |   0.0 |  0.00
Neigh   | 0          | 0          | 0          |   0.0 |  0.00
Comm    | 0          | 0          | 0          |   0.0 |  0.00
Output  | 0          | 0          | 0          |   0.0 |  0.00
Modify  | 0          | 0          | 0          |   0.0 |  0.00
Other   |            | 3.205e-05  |            |       |100.00

Nlocal:        148.500 ave         226 max          16 min
Histogram: 4 2 2 0 0 0 0 0 0 12
Nghost:        4118.00 ave        6336 max        2449 min
Histogram: 8 0 0 0 0 8 0 0 0 4
Neighs:        71280.9 ave      122110 max         584 min
Histogram: 4 0 4 0 0 0 2 2 0 8
FullNghs:      142562.0 ave      238698 max        8448 min
Histogram: 4 4 0 0 0 0 0 0 4 8

Total # of neighbors = 2851236
Ave neighs/atom = 960.01212
Ave special neighs/atom = 0.084848485
Neighbor list builds = 0
Dangerous builds = 0
variable fet atom c_coord==4
group fet variable fet
180 atoms in group fet
group feo subtract fe fet
396 atoms in group feo
undump coord

# Reset molIDs
set mol 1 mol 0
Setting atom values ...
  216 settings made for mol
set mol 2 mol 0
Setting atom values ...
  1314 settings made for mol
set group fet mol 1
Setting atom values ...
  180 settings made for mol
set group feo mol 2
Setting atom values ...
  396 settings made for mol

variable fet3 atom "gmask(fet) && q == 1.575"
group fet3 dynamic fe var fet3 every 100
dynamic group fet3 defined
variable rfet3 equal count(fet3)/count(fet)

variable feo3 atom "gmask(feo) && q == 1.575"
group feo3 dynamic fe var feo3 every 100
dynamic group feo3 defined
variable rfeo3 equal count(feo3)/count(feo)

variable cnum equal 109

# High Tmc swaps to randomize the oxidation states.
fix swp fe atom/swap 1 1 ${rand} 5000000 ke no types 6 7
fix swp fe atom/swap 1 1 855824 5000000 ke no types 6 7
thermo 1000
thermo_style custom step pe f_swp[1] f_swp[2] v_rfet3 v_rfeo3
run 100000
PPPM initialization ...
  using 12-bit tables for long-range coulomb (../kspace.cpp:340)
  G vector (1/distance) = 0.2958869
  grid = 45 45 200
  stencil order = 5
  estimated absolute RMS force accuracy = 0.00034164501
  estimated relative force accuracy = 1.0288538e-06
  using double precision KISS FFT
  3d grid and FFT values/proc = 144150 77234
Per MPI rank memory allocation (min/avg/max) = 12.88 | 15.66 | 23.28 Mbytes
Step PotEng f_swp[1] f_swp[2] v_rfet3 v_rfeo3 
       0   -513375.33            0            0          0.8   0.77272727 
    1000   -517854.67         1000          996          0.8   0.77272727 
    2000   -517036.34         2000         1991   0.81111111   0.76767677 
    3000   -514038.93         3000         2989   0.77222222   0.78535354 
    4000   -517522.07         4000         3981   0.77222222   0.78535354 
    5000   -517545.08         5000         4973   0.78333333   0.78030303 
    6000   -515479.23         6000         5963   0.84444444   0.75252525 
    7000   -515847.77         7000         6955   0.80555556   0.77020202 
    8000   -515620.21         8000         7948   0.78888889   0.77777778 
    9000   -517514.03         9000         8940   0.77777778   0.78282828 
   10000   -518417.78        10000         9937   0.79444444   0.77525253 
   11000   -517162.51        11000        10929          0.8   0.77272727 
   12000   -518478.31        12000        11921   0.78333333   0.78030303 
   13000      -517403        13000        12912   0.77777778   0.78282828 
   14000   -518665.91        14000        13906   0.72777778   0.80555556 
   15000   -517049.29        15000        14901   0.81111111   0.76767677 
   16000   -516313.54        16000        15891   0.78888889   0.77777778 
   17000   -515997.47        17000        16881   0.75555556   0.79292929 
   18000   -515840.66        18000        17873   0.81666667   0.76515152 
   19000   -517105.32        19000        18869   0.76111111   0.79040404 
   20000   -516092.56        20000        19857   0.77777778   0.78282828 
   21000   -516199.38        21000        20849   0.75555556   0.79292929 
   22000   -515296.38        22000        21837   0.77222222   0.78535354 
   23000   -513976.65        23000        22830   0.79444444   0.77525253 
   24000   -514876.15        24000        23821   0.78888889   0.77777778 
   25000   -517121.06        25000        24811   0.80555556   0.77020202 
   26000   -514460.85        26000        25801   0.76111111   0.79040404 
   27000   -515314.04        27000        26790   0.82222222   0.76262626 
   28000   -516367.73        28000        27781   0.77222222   0.78535354 
   29000   -513473.56        29000        28770   0.77777778   0.78282828 
   30000   -514795.28        30000        29760   0.78333333   0.78030303 
   31000    -517793.8        31000        30755   0.76111111   0.79040404 
   32000   -515203.21        32000        31751   0.75555556   0.79292929 
   33000   -517577.92        33000        32747   0.77777778   0.78282828 
   34000   -515971.74        34000        33741   0.77222222   0.78535354 
   35000   -513864.86        35000        34729   0.77777778   0.78282828 
   36000   -514896.49        36000        35721   0.77222222   0.78535354 
   37000   -517374.78        37000        36716   0.77777778   0.78282828 
   38000   -515726.82        38000        37707         0.75   0.79545455 
   39000   -517361.37        39000        38700   0.80555556   0.77020202 
   40000    -518218.7        40000        39694   0.79444444   0.77525253 
   41000   -516080.02        41000        40684   0.77222222   0.78535354 
   42000   -516991.28        42000        41681          0.8   0.77272727 
   43000   -514485.84        43000        42675   0.75555556   0.79292929 
   44000   -517220.82        44000        43666   0.76666667   0.78787879 
   45000   -515664.45        45000        44657   0.77777778   0.78282828 
   46000   -515122.47        46000        45652   0.76111111   0.79040404 
   47000   -516328.22        47000        46644   0.78333333   0.78030303 
   48000   -515902.37        48000        47639   0.78888889   0.77777778 
   49000   -518059.22        49000        48633   0.82222222   0.76262626 
   50000   -513955.67        50000        49627   0.76111111   0.79040404 
   51000   -517596.58        51000        50622   0.78888889   0.77777778 
   52000   -516060.96        52000        51615   0.73888889   0.80050505 
   53000    -517676.9        53000        52611   0.76111111   0.79040404 
   54000   -517567.93        54000        53603   0.77777778   0.78282828 
   55000   -516038.18        55000        54593   0.76666667   0.78787879 
   56000   -515152.83        56000        55579   0.82777778   0.76010101 
   57000   -515812.37        57000        56570   0.82777778   0.76010101 
   58000    -518646.3        58000        57566   0.76111111   0.79040404 
   59000   -512343.21        59000        58557   0.77777778   0.78282828 
   60000   -517447.32        60000        59549   0.77222222   0.78535354 
   61000    -516864.3        61000        60543   0.79444444   0.77525253 
   62000   -516578.27        62000        61535   0.80555556   0.77020202 
   63000   -517098.18        63000        62528   0.76111111   0.79040404 
   64000   -514940.26        64000        63516         0.75   0.79545455 
   65000   -515438.75        65000        64506   0.73888889   0.80050505 
   66000    -515143.7        66000        65500   0.80555556   0.77020202 
   67000   -514106.84        67000        66492   0.82777778   0.76010101 
   68000   -515060.69        68000        67488   0.83333333   0.75757576 
   69000   -516811.46        69000        68483   0.77777778   0.78282828 
   70000   -515211.02        70000        69473   0.72777778   0.80555556 
   71000   -515591.41        71000        70466   0.78333333   0.78030303 
   72000   -517121.65        72000        71458   0.72777778   0.80555556 
   73000    -514400.1        73000        72454   0.82222222   0.76262626 
   74000   -517704.47        74000        73444   0.76111111   0.79040404 
   75000   -513506.75        75000        74431   0.75555556   0.79292929 
   76000   -515627.65        76000        75421   0.75555556   0.79292929 
   77000   -517295.56        77000        76414   0.81666667   0.76515152 
   78000   -512778.88        78000        77405   0.78888889   0.77777778 
   79000   -515894.51        79000        78394   0.83333333   0.75757576 
   80000   -518265.75        80000        79388   0.77777778   0.78282828 
   81000   -517567.23        81000        80379   0.81111111   0.76767677 
   82000   -515186.36        82000        81373   0.79444444   0.77525253 
   83000   -514796.67        83000        82361   0.80555556   0.77020202 
   84000   -516670.01        84000        83351   0.82222222   0.76262626 
   85000   -514960.24        85000        84345   0.76111111   0.79040404 
   86000   -514821.91        86000        85336          0.8   0.77272727 
   87000   -514919.33        87000        86323   0.78333333   0.78030303 
   88000   -518310.91        88000        87310   0.76666667   0.78787879 
   89000   -516783.49        89000        88299   0.80555556   0.77020202 
   90000    -518361.9        90000        89296   0.81666667   0.76515152 
   91000   -517770.93        91000        90291   0.76666667   0.78787879 
   92000   -514587.19        92000        91284   0.81111111   0.76767677 
   93000   -517090.14        93000        92274   0.79444444   0.77525253 
   94000   -515098.41        94000        93270   0.78888889   0.77777778 
   95000   -516497.65        95000        94262   0.82222222   0.76262626 
   96000   -514393.24        96000        95250   0.77222222   0.78535354 
   97000   -513404.12        97000        96240   0.78333333   0.78030303 
   98000   -515177.94        98000        97236   0.80555556   0.77020202 
   99000   -518324.04        99000        98221   0.79444444   0.77525253 
  100000   -515979.19       100000        99214   0.77222222   0.78535354 
Loop time of 6035.73 on 20 procs for 100000 steps with 2970 atoms

Performance: 0.716 ns/day, 33.532 hours/ns, 16.568 timesteps/s
99.4% CPU use with 20 MPI tasks x no OpenMP threads

MPI task timing breakdown:
Section |  min time  |  avg time  |  max time  |%varavg| %total
---------------------------------------------------------------
Pair    | 1.7932     | 122.65     | 209.78     | 728.4 |  2.03
Bond    | 0.064399   | 0.19688    | 0.44532    |  33.4 |  0.00
Kspace  | 1052.3     | 1140       | 1261.3     | 240.5 | 18.89
Neigh   | 290.08     | 296.3      | 308.99     |  39.1 |  4.91
Comm    | 38.127     | 56.336     | 65.58      | 133.6 |  0.93
Output  | 0.014618   | 0.018582   | 0.027177   |   2.9 |  0.00
Modify  | 4414.3     | 4418.1     | 4423.7     |   5.4 | 73.20
Other   |            | 2.163      |            |       |  0.04

Nlocal:        148.500 ave         226 max          16 min
Histogram: 4 2 2 0 0 0 0 0 0 12
Nghost:        4118.00 ave        6336 max        2449 min
Histogram: 8 0 0 0 0 8 0 0 0 4
Neighs:        71280.9 ave      122110 max         584 min
Histogram: 4 0 4 0 0 0 2 2 0 8
FullNghs:      142562.0 ave      238698 max        8448 min
Histogram: 4 4 0 0 0 0 0 0 4 8

Total # of neighbors = 2851236
Ave neighs/atom = 960.01212
Ave special neighs/atom = 0.084848485
Neighbor list builds = 200000
Dangerous builds = 0

unfix swp
thermo_style custom step temp pe
write_data 001-dbt_3x3_${layer}L_fa_${type}_rand.data
write_data 001-dbt_3x3_21L_fa_${type}_rand.data
write_data 001-dbt_3x3_21L_fa_tet_full_rand.data
System init for write_data ...
PPPM initialization ...
  using 12-bit tables for long-range coulomb (../kspace.cpp:340)
  G vector (1/distance) = 0.2958869
  grid = 45 45 200
  stencil order = 5
  estimated absolute RMS force accuracy = 0.00034164501
  estimated relative force accuracy = 1.0288538e-06
  using double precision KISS FFT
  3d grid and FFT values/proc = 144150 77234

label minimize_temp

  variable ftemp equal v_temp

  # Minimize O-H bond
  group  immobile_1 type 1 2 3 6 7 8
2934 atoms in group immobile_1
  fix  freeze immobile_1 setforce 0.0 0.0 0.0
  minimize  1.0e-6 1.0e-9 1000 10000
PPPM initialization ...
  using 12-bit tables for long-range coulomb (../kspace.cpp:340)
  G vector (1/distance) = 0.2958869
  grid = 45 45 200
  stencil order = 5
  estimated absolute RMS force accuracy = 0.00034164501
  estimated relative force accuracy = 1.0288538e-06
  using double precision KISS FFT
  3d grid and FFT values/proc = 144150 77234
Per MPI rank memory allocation (min/avg/max) = 14.01 | 16.78 | 24.40 Mbytes
Step Temp PotEng 
  100000            0   -515979.19 
  100021            0   -518475.46 
Loop time of 0.461247 on 20 procs for 21 steps with 2970 atoms

99.5% CPU use with 20 MPI tasks x no OpenMP threads

Minimization stats:
  Stopping criterion = energy tolerance
  Energy initial, next-to-last, final = 
     -515979.187696495  -518474.947697597  -518475.457096055
  Force two-norm initial, final = 2586.0181 23.020343
  Force max component initial, final = 444.07687 7.8970053
  Final line search alpha, max atom move = 0.0071955956 0.056823656
  Iterations, force evaluations = 21 32

MPI task timing breakdown:
Section |  min time  |  avg time  |  max time  |%varavg| %total
---------------------------------------------------------------
Pair    | 0.00089595 | 0.060188   | 0.102      |  16.1 | 13.05
Bond    | 4.1852e-05 | 0.00010854 | 0.00024884 |   0.0 |  0.02
Kspace  | 0.34359    | 0.38567    | 0.44526    |   6.4 | 83.61
Neigh   | 0.002899   | 0.0029812  | 0.0031127  |   0.1 |  0.65
Comm    | 0.0057274  | 0.0088159  | 0.010936   |   2.0 |  1.91
Output  | 0          | 0          | 0          |   0.0 |  0.00
Modify  | 4.1074e-05 | 6.5233e-05 | 9.8002e-05 |   0.0 |  0.01
Other   |            | 0.003419   |            |       |  0.74

Nlocal:        148.500 ave         226 max          16 min
Histogram: 4 2 2 0 0 0 0 0 0 12
Nghost:        4129.70 ave        6386 max        2452 min
Histogram: 8 0 0 0 0 8 0 0 0 4
Neighs:        71278.8 ave      122110 max         584 min
Histogram: 4 0 4 0 0 0 2 2 0 8
FullNghs:      142562.0 ave      238698 max        8448 min
Histogram: 4 4 0 0 0 0 0 0 4 8

Total # of neighbors = 2851236
Ave neighs/atom = 960.01212
Ave special neighs/atom = 0.084848485
Neighbor list builds = 1
Dangerous builds = 0
  unfix  freeze
  group immobile_1 delete

  # Minimize formate
  group  immobile_2 type 6 7 8 9 10
2898 atoms in group immobile_2
  fix  freeze immobile_2 setforce 0.0 0.0 0.0
  minimize  1.0e-6 1.0e-9 1000 10000
PPPM initialization ...
  using 12-bit tables for long-range coulomb (../kspace.cpp:340)
  G vector (1/distance) = 0.2958869
  grid = 45 45 200
  stencil order = 5
  estimated absolute RMS force accuracy = 0.00034164501
  estimated relative force accuracy = 1.0288538e-06
  using double precision KISS FFT
  3d grid and FFT values/proc = 144150 77234
Per MPI rank memory allocation (min/avg/max) = 14.01 | 16.78 | 24.40 Mbytes
Step Temp PotEng 
  100021            0   -518475.46 
  100038            0   -522793.72 
Loop time of 0.443813 on 20 procs for 17 steps with 2970 atoms

99.5% CPU use with 20 MPI tasks x no OpenMP threads

Minimization stats:
  Stopping criterion = energy tolerance
  Energy initial, next-to-last, final = 
     -518475.457096055  -522793.227167794  -522793.724091274
  Force two-norm initial, final = 3857.1465 33.080594
  Force max component initial, final = 432.69827 15.242477
  Final line search alpha, max atom move = 0.0054072932 0.082420543
  Iterations, force evaluations = 17 31

MPI task timing breakdown:
Section |  min time  |  avg time  |  max time  |%varavg| %total
---------------------------------------------------------------
Pair    | 0.0012235  | 0.058555   | 0.099193   |  15.8 | 13.19
Bond    | 4.1385e-05 | 0.00010701 | 0.00028075 |   0.0 |  0.02
Kspace  | 0.33306    | 0.37396    | 0.43152    |   6.3 | 84.26
Neigh   | 0          | 0          | 0          |   0.0 |  0.00
Comm    | 0.0052715  | 0.0081275  | 0.010109   |   1.9 |  1.83
Output  | 0          | 0          | 0          |   0.0 |  0.00
Modify  | 3.4125e-05 | 6.1055e-05 | 7.9913e-05 |   0.0 |  0.01
Other   |            | 0.003004   |            |       |  0.68

Nlocal:        148.500 ave         226 max          16 min
Histogram: 4 2 2 0 0 0 0 0 0 12
Nghost:        4130.00 ave        6386 max        2454 min
Histogram: 8 0 0 0 0 8 0 0 0 4
Neighs:        71275.4 ave      122110 max         584 min
Histogram: 4 0 4 0 0 0 2 2 0 8
FullNghs:      142562.0 ave      238698 max        8448 min
Histogram: 4 4 0 0 0 0 0 0 4 8

Total # of neighbors = 2851236
Ave neighs/atom = 960.01212
Ave special neighs/atom = 0.084848485
Neighbor list builds = 0
Dangerous builds = 0
  unfix  freeze
  group immobile_2 delete

  # Electrostatic relaxation
  fix  swp fe atom/swap 1 1 ${rand} ${temp} ke no types 6 7
  fix  swp fe atom/swap 1 1 710414 ${temp} ke no types 6 7
  fix  swp fe atom/swap 1 1 710414 500000 ke no types 6 7
  thermo 1000
  thermo_style custom step v_ftemp v_cnum pe f_swp[1] f_swp[2] v_rfet3 v_rfeo3
  run ${nsteps}
  run 82944
PPPM initialization ...
  using 12-bit tables for long-range coulomb (../kspace.cpp:340)
  G vector (1/distance) = 0.2958869
  grid = 45 45 200
  stencil order = 5
  estimated absolute RMS force accuracy = 0.00034164501
  estimated relative force accuracy = 1.0288538e-06
  using double precision KISS FFT
  3d grid and FFT values/proc = 144150 77234
Per MPI rank memory allocation (min/avg/max) = 12.88 | 15.66 | 23.28 Mbytes
Step v_ftemp v_cnum PotEng f_swp[1] f_swp[2] v_rfet3 v_rfeo3 
  100038       500000          109   -522793.72            0            0   0.77222222   0.78535354 
  101000       500000          109   -523489.89          962          906   0.81111111   0.76767677 
  102000       500000          109   -523095.15         1962         1842         0.75   0.79545455 
  103000       500000          109   -525075.52         2962         2773         0.75   0.79545455 
  104000       500000          109   -523511.94         3962         3700   0.78888889   0.77777778 
  105000       500000          109   -524345.72         4962         4637   0.82777778   0.76010101 
  106000       500000          109   -523311.31         5962         5564   0.78333333   0.78030303 
  107000       500000          109   -523943.46         6962         6489   0.73888889   0.80050505 
  108000       500000          109   -523092.59         7962         7431   0.81111111   0.76767677 
  109000       500000          109   -525779.07         8962         8366          0.8   0.77272727 
  110000       500000          109   -523287.71         9962         9294   0.79444444   0.77525253 
  111000       500000          109   -524892.88        10962        10234   0.74444444    0.7979798 
  112000       500000          109   -524338.08        11962        11170   0.81111111   0.76767677 
  113000       500000          109   -524842.38        12962        12105   0.78333333   0.78030303 
  114000       500000          109   -524350.64        13962        13049   0.78888889   0.77777778 
  115000       500000          109    -524220.8        14962        13982   0.75555556   0.79292929 
  116000       500000          109   -523893.57        15962        14908   0.77222222   0.78535354 
  117000       500000          109   -524683.02        16962        15837   0.78333333   0.78030303 
  118000       500000          109   -522822.27        17962        16776   0.81666667   0.76515152 
  119000       500000          109   -525764.79        18962        17698   0.78333333   0.78030303 
  120000       500000          109    -523646.6        19962        18638   0.77777778   0.78282828 
  121000       500000          109   -526231.21        20962        19578   0.81666667   0.76515152 
  122000       500000          109   -522956.57        21962        20513   0.82222222   0.76262626 
  123000       500000          109   -523521.75        22962        21432   0.73888889   0.80050505 
  124000       500000          109   -524873.27        23962        22355   0.83333333   0.75757576 
  125000       500000          109   -523886.87        24962        23296   0.79444444   0.77525253 
  126000       500000          109   -523823.89        25962        24234          0.8   0.77272727 
  127000       500000          109   -524315.91        26962        25152          0.8   0.77272727 
  128000       500000          109   -523605.98        27962        26085         0.75   0.79545455 
  129000       500000          109   -523800.31        28962        27034          0.8   0.77272727 
  130000       500000          109   -520530.59        29962        27969   0.76666667   0.78787879 
  131000       500000          109   -525040.93        30962        28897   0.77222222   0.78535354 
  132000       500000          109   -524112.03        31962        29817   0.77222222   0.78535354 
  133000       500000          109   -524301.86        32962        30751   0.78333333   0.78030303 
  134000       500000          109    -523596.8        33962        31696   0.73888889   0.80050505 
  135000       500000          109   -523521.29        34962        32624   0.79444444   0.77525253 
  136000       500000          109   -520768.18        35962        33554   0.79444444   0.77525253 
  137000       500000          109   -524114.41        36962        34491   0.78333333   0.78030303 
  138000       500000          109   -524510.59        37962        35413   0.77222222   0.78535354 
  139000       500000          109   -523578.76        38962        36343   0.80555556   0.77020202 
  140000       500000          109   -525015.68        39962        37278   0.80555556   0.77020202 
  141000       500000          109   -523204.48        40962        38213   0.82222222   0.76262626 
  142000       500000          109   -523320.19        41962        39140   0.77777778   0.78282828 
  143000       500000          109   -525353.94        42962        40079   0.79444444   0.77525253 
  144000       500000          109   -522516.82        43962        40992   0.81111111   0.76767677 
  145000       500000          109   -524573.65        44962        41927   0.72777778   0.80555556 
  146000       500000          109   -522907.58        45962        42855   0.78333333   0.78030303 
  147000       500000          109   -525038.88        46962        43800   0.78888889   0.77777778 
  148000       500000          109      -523525        47962        44746   0.77222222   0.78535354 
  149000       500000          109   -522494.65        48962        45679   0.83333333   0.75757576 
  150000       500000          109   -522741.32        49962        46607   0.78333333   0.78030303 
  151000       500000          109   -524945.01        50962        47548   0.71666667   0.81060606 
  152000       500000          109   -523206.87        51962        48472   0.76666667   0.78787879 
  153000       500000          109      -525889        52962        49410         0.75   0.79545455 
  154000       500000          109   -525192.66        53962        50356   0.81111111   0.76767677 
  155000       500000          109   -525285.04        54962        51274   0.83888889   0.75505051 
  156000       500000          109   -524231.33        55962        52203   0.78888889   0.77777778 
  157000       500000          109    -522662.2        56962        53131   0.79444444   0.77525253 
  158000       500000          109   -523368.95        57962        54060   0.78333333   0.78030303 
  159000       500000          109    -521851.4        58962        54981   0.77777778   0.78282828 
  160000       500000          109   -524066.08        59962        55906   0.75555556   0.79292929 
  161000       500000          109   -524736.42        60962        56838   0.76666667   0.78787879 
  162000       500000          109   -526337.38        61962        57762   0.81666667   0.76515152 
  163000       500000          109   -524841.49        62962        58695   0.75555556   0.79292929 
  164000       500000          109   -524583.14        63962        59628   0.79444444   0.77525253 
  165000       500000          109   -525132.01        64962        60574   0.74444444    0.7979798 
  166000       500000          109   -523160.72        65962        61513   0.76666667   0.78787879 
  167000       500000          109   -524985.74        66962        62445   0.79444444   0.77525253 
  168000       500000          109   -522968.01        67962        63378   0.80555556   0.77020202 
  169000       500000          109    -522505.4        68962        64315   0.81111111   0.76767677 
  170000       500000          109   -525024.65        69962        65246         0.75   0.79545455 
  171000       500000          109   -524959.27        70962        66168   0.77777778   0.78282828 
  172000       500000          109   -524690.92        71962        67107   0.77222222   0.78535354 
  173000       500000          109   -524101.12        72962        68038   0.77222222   0.78535354 
  174000       500000          109   -524287.94        73962        68982   0.74444444    0.7979798 
  175000       500000          109   -524116.42        74962        69916   0.78888889   0.77777778 
  176000       500000          109   -524815.21        75962        70859          0.8   0.77272727 
  177000       500000          109   -525848.67        76962        71798         0.75   0.79545455 
  178000       500000          109   -526005.59        77962        72729   0.83333333   0.75757576 
  179000       500000          109   -524528.15        78962        73665         0.75   0.79545455 
  180000       500000          109   -524332.95        79962        74606   0.78888889   0.77777778 
  181000       500000          109   -524541.21        80962        75537   0.77777778   0.78282828 
  182000       500000          109   -524140.36        81962        76476   0.75555556   0.79292929 
  182982       500000          109    -525250.6        82944        77413         0.75   0.79545455 
Loop time of 5006.11 on 20 procs for 82944 steps with 2970 atoms

Performance: 0.716 ns/day, 33.531 hours/ns, 16.569 timesteps/s
99.4% CPU use with 20 MPI tasks x no OpenMP threads

MPI task timing breakdown:
Section |  min time  |  avg time  |  max time  |%varavg| %total
---------------------------------------------------------------
Pair    | 2.2649     | 101.88     | 173.69     | 660.5 |  2.04
Bond    | 0.054168   | 0.18449    | 0.42795    |  34.1 |  0.00
Kspace  | 869.88     | 942.2      | 1042.4     | 218.7 | 18.82
Neigh   | 242.23     | 247.6      | 258.26     |  36.0 |  4.95
Comm    | 31.603     | 46.907     | 54.72      | 123.3 |  0.94
Output  | 0.012059   | 0.01553    | 0.02289    |   2.7 |  0.00
Modify  | 3662.2     | 3665.5     | 3670.2     |   5.1 | 73.22
Other   |            | 1.838      |            |       |  0.04

Nlocal:        148.500 ave         226 max          16 min
Histogram: 4 2 2 0 0 0 0 0 0 12
Nghost:        4127.70 ave        6386 max        2450 min
Histogram: 8 0 0 0 0 8 0 0 0 4
Neighs:        71283.5 ave      122110 max         592 min
Histogram: 4 0 4 0 0 0 2 2 0 8
FullNghs:      142562.0 ave      238698 max        8448 min
Histogram: 4 4 0 0 0 0 0 0 4 8

Total # of neighbors = 2851236
Ave neighs/atom = 960.01212
Ave special neighs/atom = 0.084848485
Neighbor list builds = 165888
Dangerous builds = 0

  variable cnum equal (${cnum}-1)
  variable cnum equal (109-1)

  unfix swp
  thermo_style custom step temp pe
  write_data  001-dbt_3x3_${layer}L_fa_${type}_${cnum}_${temp}K.data
  write_data  001-dbt_3x3_21L_fa_${type}_${cnum}_${temp}K.data
  write_data  001-dbt_3x3_21L_fa_tet_full_${cnum}_${temp}K.data
  write_data  001-dbt_3x3_21L_fa_tet_full_108_${temp}K.data
  write_data  001-dbt_3x3_21L_fa_tet_full_108_500000K.data
System init for write_data ...
PPPM initialization ...
  using 12-bit tables for long-range coulomb (../kspace.cpp:340)
  G vector (1/distance) = 0.2958869
  grid = 45 45 200
  stencil order = 5
  estimated absolute RMS force accuracy = 0.00034164501
  estimated relative force accuracy = 1.0288538e-06
  using double precision KISS FFT
  3d grid and FFT values/proc = 144150 77234

next temp
jump SELF minimize_temp

  variable ftemp equal v_temp

  # Minimize O-H bond
  group  immobile_1 type 1 2 3 6 7 8
2934 atoms in group immobile_1
  fix  freeze immobile_1 setforce 0.0 0.0 0.0
  minimize  1.0e-6 1.0e-9 1000 10000
PPPM initialization ...
  using 12-bit tables for long-range coulomb (../kspace.cpp:340)
  G vector (1/distance) = 0.2958869
  grid = 45 45 200
  stencil order = 5
  estimated absolute RMS force accuracy = 0.00034164501
  estimated relative force accuracy = 1.0288538e-06
  using double precision KISS FFT
  3d grid and FFT values/proc = 144150 77234
Per MPI rank memory allocation (min/avg/max) = 14.01 | 16.78 | 24.40 Mbytes
Step Temp PotEng 
  182982            0    -525250.6 
  182990            0   -525305.74 
Loop time of 0.235986 on 20 procs for 8 steps with 2970 atoms

99.4% CPU use with 20 MPI tasks x no OpenMP threads

Minimization stats:
  Stopping criterion = energy tolerance
  Energy initial, next-to-last, final = 
     -525250.600015991  -525305.404949118  -525305.742249437
  Force two-norm initial, final = 221.36088 22.149460
  Force max component initial, final = 73.761376 7.7649938
  Final line search alpha, max atom move = 0.014879010 0.11553542
  Iterations, force evaluations = 8 16

MPI task timing breakdown:
Section |  min time  |  avg time  |  max time  |%varavg| %total
---------------------------------------------------------------
Pair    | 0.00069864 | 0.031122   | 0.05295    |  11.5 | 13.19
Bond    | 2.0062e-05 | 5.6614e-05 | 0.0001291  |   0.0 |  0.02
Kspace  | 0.17649    | 0.19847    | 0.22899    |   4.6 | 84.10
Neigh   | 0          | 0          | 0          |   0.0 |  0.00
Comm    | 0.0027819  | 0.0043147  | 0.0053747  |   1.4 |  1.83
Output  | 0          | 0          | 0          |   0.0 |  0.00
Modify  | 2.3252e-05 | 3.4676e-05 | 4.9764e-05 |   0.0 |  0.01
Other   |            | 0.001989   |            |       |  0.84

Nlocal:        148.500 ave         226 max          16 min
Histogram: 4 2 2 0 0 0 0 0 0 12
Nghost:        4127.70 ave        6386 max        2450 min
Histogram: 8 0 0 0 0 8 0 0 0 4
Neighs:        71283.5 ave      122110 max         592 min
Histogram: 4 0 4 0 0 0 2 2 0 8
FullNghs:      142562.0 ave      238698 max        8448 min
Histogram: 4 4 0 0 0 0 0 0 4 8

Total # of neighbors = 2851236
Ave neighs/atom = 960.01212
Ave special neighs/atom = 0.084848485
Neighbor list builds = 0
Dangerous builds = 0
  unfix  freeze
  group immobile_1 delete

  # Minimize formate
  group  immobile_2 type 6 7 8 9 10
2898 atoms in group immobile_2
  fix  freeze immobile_2 setforce 0.0 0.0 0.0
  minimize  1.0e-6 1.0e-9 1000 10000
PPPM initialization ...
  using 12-bit tables for long-range coulomb (../kspace.cpp:340)
  G vector (1/distance) = 0.2958869
  grid = 45 45 200
  stencil order = 5
  estimated absolute RMS force accuracy = 0.00034164501
  estimated relative force accuracy = 1.0288538e-06
  using double precision KISS FFT
  3d grid and FFT values/proc = 144150 77234
Per MPI rank memory allocation (min/avg/max) = 14.01 | 16.79 | 24.40 Mbytes
Step Temp PotEng 
  182990            0   -525305.74 
  183000            0   -525352.94 
  183006            0   -525360.69 
Loop time of 0.445026 on 20 procs for 16 steps with 2970 atoms

99.3% CPU use with 20 MPI tasks x no OpenMP threads

Minimization stats:
  Stopping criterion = energy tolerance
  Energy initial, next-to-last, final = 
     -525305.742249437  -525360.248772491  -525360.687745175
  Force two-norm initial, final = 157.94130 25.247160
  Force max component initial, final = 51.095364 6.1166751
  Final line search alpha, max atom move = 0.0041907710 0.025633584
  Iterations, force evaluations = 16 31

MPI task timing breakdown:
Section |  min time  |  avg time  |  max time  |%varavg| %total
---------------------------------------------------------------
Pair    | 0.0013613  | 0.058557   | 0.099175   |  15.8 | 13.16
Bond    | 3.8873e-05 | 0.00010759 | 0.0002763  |   0.0 |  0.02
Kspace  | 0.33404    | 0.37487    | 0.43231    |   6.3 | 84.24
Neigh   | 0          | 0          | 0          |   0.0 |  0.00
Comm    | 0.0053454  | 0.0082841  | 0.010341   |   2.0 |  1.86
Output  | 2.2427e-05 | 2.4348e-05 | 4.6046e-05 |   0.0 |  0.01
Modify  | 4.2277e-05 | 6.1239e-05 | 7.8279e-05 |   0.0 |  0.01
Other   |            | 0.003119   |            |       |  0.70

Nlocal:        148.500 ave         226 max          16 min
Histogram: 4 2 2 0 0 0 0 0 0 12
Nghost:        4127.70 ave        6386 max        2450 min
Histogram: 8 0 0 0 0 8 0 0 0 4
Neighs:        71282.9 ave      122110 max         592 min
Histogram: 4 0 4 0 0 0 2 2 0 8
FullNghs:      142562.0 ave      238698 max        8448 min
Histogram: 4 4 0 0 0 0 0 0 4 8

Total # of neighbors = 2851236
Ave neighs/atom = 960.01212
Ave special neighs/atom = 0.084848485
Neighbor list builds = 0
Dangerous builds = 0
  unfix  freeze
  group immobile_2 delete

  # Electrostatic relaxation
  fix  swp fe atom/swap 1 1 ${rand} ${temp} ke no types 6 7
  fix  swp fe atom/swap 1 1 755762 ${temp} ke no types 6 7
  fix  swp fe atom/swap 1 1 755762 450000 ke no types 6 7
  thermo 1000
  thermo_style custom step v_ftemp v_cnum pe f_swp[1] f_swp[2] v_rfet3 v_rfeo3
  run ${nsteps}
  run 82944
PPPM initialization ...
  using 12-bit tables for long-range coulomb (../kspace.cpp:340)
  G vector (1/distance) = 0.2958869
  grid = 45 45 200
  stencil order = 5
  estimated absolute RMS force accuracy = 0.00034164501
  estimated relative force accuracy = 1.0288538e-06
  using double precision KISS FFT
  3d grid and FFT values/proc = 144150 77234
Per MPI rank memory allocation (min/avg/max) = 12.88 | 15.66 | 23.28 Mbytes
Step v_ftemp v_cnum PotEng f_swp[1] f_swp[2] v_rfet3 v_rfeo3 
  183006       450000          108   -525360.69            0            0   0.78888889   0.77777778 
  184000       450000          108   -523911.89          994          921   0.78888889   0.77777778 
  185000       450000          108   -522993.34         1994         1857   0.74444444    0.7979798 
  186000       450000          108   -523730.07         2994         2797          0.8   0.77272727 
  187000       450000          108   -521766.48         3994         3730   0.73333333    0.8030303 
  188000       450000          108    -522407.7         4994         4665   0.76111111   0.79040404 
  189000       450000          108   -525275.26         5994         5583   0.77777778   0.78282828 
  190000       450000          108   -524757.46         6994         6498   0.75555556   0.79292929 
  191000       450000          108   -525029.86         7994         7431   0.77222222   0.78535354 
  192000       450000          108    -524473.2         8994         8344   0.78888889   0.77777778 
  193000       450000          108   -523781.41         9994         9284          0.8   0.77272727 
  194000       450000          108   -525906.96        10994        10204   0.76111111   0.79040404 
  195000       450000          108   -523909.61        11994        11127   0.77777778   0.78282828 
  196000       450000          108   -520603.03        12994        12053   0.75555556   0.79292929 
  197000       450000          108   -524891.17        13994        12988   0.74444444    0.7979798 
  198000       450000          108   -521748.88        14994        13907   0.82222222   0.76262626 
  199000       450000          108   -524271.59        15994        14841   0.76111111   0.79040404 
  200000       450000          108   -525677.86        16994        15759   0.81666667   0.76515152 
  201000       450000          108   -525063.43        17994        16697   0.78333333   0.78030303 
  202000       450000          108   -525590.89        18994        17632   0.78888889   0.77777778 
  203000       450000          108    -525859.1        19994        18566   0.82222222   0.76262626 
  204000       450000          108   -522544.26        20994        19492   0.75555556   0.79292929 
  205000       450000          108   -522863.23        21994        20423   0.76111111   0.79040404 
  206000       450000          108   -523851.32        22994        21341   0.77777778   0.78282828 
  207000       450000          108   -524573.75        23994        22280   0.80555556   0.77020202 
  208000       450000          108   -524295.84        24994        23210   0.76111111   0.79040404 
  209000       450000          108   -523409.84        25994        24132   0.78333333   0.78030303 
  210000       450000          108   -521073.33        26994        25054   0.78888889   0.77777778 
  211000       450000          108   -522791.44        27994        25976   0.73333333    0.8030303 
  212000       450000          108   -524739.21        28994        26898   0.76111111   0.79040404 
  213000       450000          108   -524188.58        29994        27820   0.77222222   0.78535354 
  214000       450000          108   -526605.62        30994        28736   0.81666667   0.76515152 
  215000       450000          108   -525067.32        31994        29664   0.75555556   0.79292929 
  216000       450000          108   -523381.73        32994        30598   0.75555556   0.79292929 
  217000       450000          108   -524543.16        33994        31525   0.77222222   0.78535354 
  218000       450000          108   -522869.43        34994        32460   0.76111111   0.79040404 
  219000       450000          108   -524829.71        35994        33392   0.73888889   0.80050505 
  220000       450000          108   -524429.51        36994        34315   0.78333333   0.78030303 
  221000       450000          108   -523598.45        37994        35234   0.73333333    0.8030303 
  222000       450000          108    -523633.7        38994        36169   0.79444444   0.77525253 
  223000       450000          108   -525119.99        39994        37109   0.77222222   0.78535354 
  224000       450000          108   -525950.47        40994        38034   0.83888889   0.75505051 
  225000       450000          108   -522947.86        41994        38974   0.79444444   0.77525253 
  226000       450000          108    -525037.9        42994        39885   0.79444444   0.77525253 
  227000       450000          108   -525010.84        43994        40812   0.81111111   0.76767677 
  228000       450000          108   -524365.16        44994        41741   0.81111111   0.76767677 
  229000       450000          108   -523818.92        45994        42665   0.77777778   0.78282828 
  230000       450000          108    -524747.2        46994        43581   0.82222222   0.76262626 
  231000       450000          108   -523113.08        47994        44513         0.75   0.79545455 
  232000       450000          108   -524201.26        48994        45440          0.8   0.77272727 
  233000       450000          108   -524306.34        49994        46358   0.77777778   0.78282828 
  234000       450000          108   -525219.88        50994        47267   0.82777778   0.76010101 
  235000       450000          108   -524184.39        51994        48195   0.77222222   0.78535354 
  236000       450000          108    -524760.4        52994        49119   0.78888889   0.77777778 
  237000       450000          108   -525001.25        53994        50043   0.78888889   0.77777778 
  238000       450000          108   -524899.35        54994        50962   0.77777778   0.78282828 
  239000       450000          108   -525208.08        55994        51893   0.73333333    0.8030303 
  240000       450000          108   -525740.01        56994        52814          0.8   0.77272727 
  241000       450000          108   -523337.18        57994        53728   0.77777778   0.78282828 
  242000       450000          108   -524376.94        58994        54673   0.77777778   0.78282828 
  243000       450000          108   -524273.79        59994        55608   0.76666667   0.78787879 
  244000       450000          108   -525452.16        60994        56535   0.80555556   0.77020202 
  245000       450000          108    -523518.8        61994        57453   0.77777778   0.78282828 
  246000       450000          108   -523788.68        62994        58374   0.77777778   0.78282828 
  247000       450000          108   -523350.85        63994        59317   0.74444444    0.7979798 
  248000       450000          108   -522947.17        64994        60251   0.78888889   0.77777778 
  249000       450000          108   -523780.74        65994        61172   0.78888889   0.77777778 
  250000       450000          108   -524589.62        66994        62120   0.73888889   0.80050505 
  251000       450000          108   -524865.84        67994        63047   0.81111111   0.76767677 
  252000       450000          108   -525480.46        68994        63976   0.80555556   0.77020202 
  253000       450000          108   -524734.43        69994        64910          0.8   0.77272727 
  254000       450000          108   -526038.36        70994        65826   0.74444444    0.7979798 
  255000       450000          108   -524019.79        71994        66758         0.75   0.79545455 
  256000       450000          108   -523896.71        72994        67684   0.81111111   0.76767677 
  257000       450000          108   -525642.49        73994        68620   0.82777778   0.76010101 
  258000       450000          108   -524671.05        74994        69550   0.81111111   0.76767677 
  259000       450000          108   -524955.57        75994        70485   0.72777778   0.80555556 
  260000       450000          108   -524005.87        76994        71405   0.75555556   0.79292929 
  261000       450000          108   -522135.08        77994        72331   0.75555556   0.79292929 
  262000       450000          108   -523969.31        78994        73252          0.8   0.77272727 
  263000       450000          108   -524988.31        79994        74179   0.79444444   0.77525253 
  264000       450000          108   -525196.44        80994        75113   0.83888889   0.75505051 
  265000       450000          108   -524737.51        81994        76045   0.78333333   0.78030303 
  265950       450000          108    -525057.3        82944        76928   0.77222222   0.78535354 
Loop time of 5030.77 on 20 procs for 82944 steps with 2970 atoms

Performance: 0.712 ns/day, 33.696 hours/ns, 16.487 timesteps/s
99.4% CPU use with 20 MPI tasks x no OpenMP threads

MPI task timing breakdown:
Section |  min time  |  avg time  |  max time  |%varavg| %total
---------------------------------------------------------------
Pair    | 2.1206     | 101.89     | 173.34     | 660.6 |  2.03
Bond    | 0.056594   | 0.18387    | 0.45041    |  34.4 |  0.00
Kspace  | 874.7      | 946.66     | 1046.9     | 218.3 | 18.82
Neigh   | 242.27     | 247.54     | 258.27     |  36.2 |  4.92
Comm    | 31.637     | 47.045     | 54.872     | 123.8 |  0.94
Output  | 0.012463   | 0.01583    | 0.023057   |   2.7 |  0.00
Modify  | 3682.4     | 3685.6     | 3690.3     |   5.1 | 73.26
Other   |            | 1.81       |            |       |  0.04

Nlocal:        148.500 ave         226 max          16 min
Histogram: 4 2 2 0 0 0 0 0 0 12
Nghost:        4127.70 ave        6386 max        2452 min
Histogram: 8 0 0 0 0 8 0 0 0 4
Neighs:        71283.1 ave      122110 max         599 min
Histogram: 4 0 4 0 0 0 1 3 0 8
FullNghs:      142562.0 ave      238698 max        8448 min
Histogram: 4 4 0 0 0 0 0 0 4 8

Total # of neighbors = 2851236
Ave neighs/atom = 960.01212
Ave special neighs/atom = 0.084848485
Neighbor list builds = 165888
Dangerous builds = 0

  variable cnum equal (${cnum}-1)
  variable cnum equal (108-1)

  unfix swp
  thermo_style custom step temp pe
  write_data  001-dbt_3x3_${layer}L_fa_${type}_${cnum}_${temp}K.data
  write_data  001-dbt_3x3_21L_fa_${type}_${cnum}_${temp}K.data
  write_data  001-dbt_3x3_21L_fa_tet_full_${cnum}_${temp}K.data
  write_data  001-dbt_3x3_21L_fa_tet_full_107_${temp}K.data
  write_data  001-dbt_3x3_21L_fa_tet_full_107_450000K.data
System init for write_data ...
PPPM initialization ...
  using 12-bit tables for long-range coulomb (../kspace.cpp:340)
  G vector (1/distance) = 0.2958869
  grid = 45 45 200
  stencil order = 5
  estimated absolute RMS force accuracy = 0.00034164501
  estimated relative force accuracy = 1.0288538e-06
  using double precision KISS FFT
  3d grid and FFT values/proc = 144150 77234

next temp
jump SELF minimize_temp

  variable ftemp equal v_temp

  # Minimize O-H bond
  group  immobile_1 type 1 2 3 6 7 8
2934 atoms in group immobile_1
  fix  freeze immobile_1 setforce 0.0 0.0 0.0
  minimize  1.0e-6 1.0e-9 1000 10000
PPPM initialization ...
  using 12-bit tables for long-range coulomb (../kspace.cpp:340)
  G vector (1/distance) = 0.2958869
  grid = 45 45 200
  stencil order = 5
  estimated absolute RMS force accuracy = 0.00034164501
  estimated relative force accuracy = 1.0288538e-06
  using double precision KISS FFT
  3d grid and FFT values/proc = 144150 77234
Per MPI rank memory allocation (min/avg/max) = 14.01 | 16.79 | 24.40 Mbytes
Step Temp PotEng 
  265950            0    -525057.3 
  265958            0   -525103.95 
Loop time of 0.237617 on 20 procs for 8 steps with 2970 atoms

99.3% CPU use with 20 MPI tasks x no OpenMP threads

Minimization stats:
  Stopping criterion = energy tolerance
  Energy initial, next-to-last, final = 
     -525057.295090254  -525103.543271721  -525103.951270856
  Force two-norm initial, final = 199.27432 25.004896
  Force max component initial, final = 64.723386 11.954382
  Final line search alpha, max atom move = 0.010252613 0.12256366
  Iterations, force evaluations = 8 16

MPI task timing breakdown:
Section |  min time  |  avg time  |  max time  |%varavg| %total
---------------------------------------------------------------
Pair    | 0.00071388 | 0.03116    | 0.052597   |  11.5 | 13.11
Bond    | 2.202e-05  | 5.7767e-05 | 0.00013134 |   0.0 |  0.02
Kspace  | 0.17846    | 0.20001    | 0.23058    |   4.6 | 84.17
Neigh   | 0          | 0          | 0          |   0.0 |  0.00
Comm    | 0.0028252  | 0.0044178  | 0.0055181  |   1.5 |  1.86
Output  | 0          | 0          | 0          |   0.0 |  0.00
Modify  | 2.2997e-05 | 3.3436e-05 | 4.2285e-05 |   0.0 |  0.01
Other   |            | 0.001935   |            |       |  0.81

Nlocal:        148.500 ave         226 max          16 min
Histogram: 4 2 2 0 0 0 0 0 0 12
Nghost:        4127.70 ave        6386 max        2452 min
Histogram: 8 0 0 0 0 8 0 0 0 4
Neighs:        71283.1 ave      122110 max         599 min
Histogram: 4 0 4 0 0 0 1 3 0 8
FullNghs:      142562.0 ave      238698 max        8448 min
Histogram: 4 4 0 0 0 0 0 0 4 8

Total # of neighbors = 2851236
Ave neighs/atom = 960.01212
Ave special neighs/atom = 0.084848485
Neighbor list builds = 0
Dangerous builds = 0
  unfix  freeze
  group immobile_1 delete

  # Minimize formate
  group  immobile_2 type 6 7 8 9 10
2898 atoms in group immobile_2
  fix  freeze immobile_2 setforce 0.0 0.0 0.0
  minimize  1.0e-6 1.0e-9 1000 10000
PPPM initialization ...
  using 12-bit tables for long-range coulomb (../kspace.cpp:340)
  G vector (1/distance) = 0.2958869
  grid = 45 45 200
  stencil order = 5
  estimated absolute RMS force accuracy = 0.00034164501
  estimated relative force accuracy = 1.0288538e-06
  using double precision KISS FFT
  3d grid and FFT values/proc = 144150 77234
Per MPI rank memory allocation (min/avg/max) = 14.01 | 16.79 | 24.40 Mbytes
Step Temp PotEng 
  265958            0   -525103.95 
  265972            0    -525150.7 
Loop time of 0.389554 on 20 procs for 14 steps with 2970 atoms

99.5% CPU use with 20 MPI tasks x no OpenMP threads

Minimization stats:
  Stopping criterion = energy tolerance
  Energy initial, next-to-last, final = 
     -525103.951270856  -525150.210939876  -525150.699950079
  Force two-norm initial, final = 143.65192 29.257515
  Force max component initial, final = 45.740202 14.468522
  Final line search alpha, max atom move = 0.0046409133 0.067147156
  Iterations, force evaluations = 14 27

MPI task timing breakdown:
Section |  min time  |  avg time  |  max time  |%varavg| %total
---------------------------------------------------------------
Pair    | 0.0011702  | 0.051292   | 0.086833   |  14.7 | 13.17
Bond    | 3.5798e-05 | 9.5766e-05 | 0.00023988 |   0.0 |  0.02
Kspace  | 0.2921     | 0.32787    | 0.37812    |   5.9 | 84.16
Neigh   | 0          | 0          | 0          |   0.0 |  0.00
Comm    | 0.0048634  | 0.0074976  | 0.0092834  |   1.8 |  1.92
Output  | 0          | 0          | 0          |   0.0 |  0.00
Modify  | 3.2556e-05 | 5.8176e-05 | 7.3182e-05 |   0.0 |  0.01
Other   |            | 0.002745   |            |       |  0.70

Nlocal:        148.500 ave         225 max          16 min
Histogram: 4 2 2 0 0 0 0 0 0 12
Nghost:        4127.70 ave        6386 max        2452 min
Histogram: 8 0 0 0 0 8 0 0 0 4
Neighs:        71283.4 ave      122110 max         599 min
Histogram: 4 0 4 0 0 0 2 2 0 8
FullNghs:      142562.0 ave      238698 max        8448 min
Histogram: 4 4 0 0 0 0 0 0 4 8

Total # of neighbors = 2851236
Ave neighs/atom = 960.01212
Ave special neighs/atom = 0.084848485
Neighbor list builds = 0
Dangerous builds = 0
  unfix  freeze
  group immobile_2 delete

  # Electrostatic relaxation
  fix  swp fe atom/swap 1 1 ${rand} ${temp} ke no types 6 7
  fix  swp fe atom/swap 1 1 4574249 ${temp} ke no types 6 7
  fix  swp fe atom/swap 1 1 4574249 405000 ke no types 6 7
  thermo 1000
  thermo_style custom step v_ftemp v_cnum pe f_swp[1] f_swp[2] v_rfet3 v_rfeo3
  run ${nsteps}
  run 82944
PPPM initialization ...
  using 12-bit tables for long-range coulomb (../kspace.cpp:340)
  G vector (1/distance) = 0.2958869
  grid = 45 45 200
  stencil order = 5
  estimated absolute RMS force accuracy = 0.00034164501
  estimated relative force accuracy = 1.0288538e-06
  using double precision KISS FFT
  3d grid and FFT values/proc = 144150 77234
Per MPI rank memory allocation (min/avg/max) = 12.88 | 15.66 | 23.28 Mbytes
Step v_ftemp v_cnum PotEng f_swp[1] f_swp[2] v_rfet3 v_rfeo3 
  265972       405000          107    -525150.7            0            0   0.77777778   0.78282828 
  266000       405000          107   -524813.21           28           24   0.78888889   0.77777778 
  267000       405000          107   -524282.37         1028          944   0.79444444   0.77525253 
  268000       405000          107   -524511.03         2028         1874   0.77777778   0.78282828 
  269000       405000          107   -524266.05         3028         2787         0.75   0.79545455 
  270000       405000          107   -525681.39         4028         3707   0.78333333   0.78030303 
  271000       405000          107      -524939         5028         4623   0.75555556   0.79292929 
  272000       405000          107   -526329.82         6028         5550   0.81666667   0.76515152 
  273000       405000          107   -523469.59         7028         6468         0.75   0.79545455 
  274000       405000          107   -524606.51         8028         7378   0.77222222   0.78535354 
  275000       405000          107   -524670.68         9028         8310   0.77777778   0.78282828 
  276000       405000          107   -524472.61        10028         9231   0.79444444   0.77525253 
  277000       405000          107    -525367.6        11028        10140   0.76666667   0.78787879 
  278000       405000          107   -524247.15        12028        11045   0.80555556   0.77020202 
  279000       405000          107   -523670.83        13028        11973   0.78333333   0.78030303 
  280000       405000          107   -523825.21        14028        12895   0.74444444    0.7979798 
  281000       405000          107   -523949.37        15028        13820   0.76666667   0.78787879 
  282000       405000          107   -523050.56        16028        14748   0.82777778   0.76010101 
  283000       405000          107   -525300.46        17028        15671   0.81111111   0.76767677 
  284000       405000          107   -524421.52        18028        16583   0.80555556   0.77020202 
  285000       405000          107      -525073        19028        17505   0.79444444   0.77525253 
  286000       405000          107   -524133.55        20028        18424          0.8   0.77272727 
  287000       405000          107   -523259.65        21028        19341   0.75555556   0.79292929 
  288000       405000          107   -524044.27        22028        20263   0.77222222   0.78535354 
  289000       405000          107   -525256.57        23028        21193   0.78888889   0.77777778 
  290000       405000          107   -523662.92        24028        22115   0.80555556   0.77020202 
  291000       405000          107   -523358.74        25028        23055   0.74444444    0.7979798 
  292000       405000          107   -525222.64        26028        23960   0.79444444   0.77525253 
  293000       405000          107   -522405.88        27028        24886   0.76111111   0.79040404 
  294000       405000          107   -524628.71        28028        25801   0.82222222   0.76262626 
  295000       405000          107   -523195.13        29028        26731   0.75555556   0.79292929 
  296000       405000          107   -524215.06        30028        27649   0.76666667   0.78787879 
  297000       405000          107   -523049.43        31028        28559   0.78333333   0.78030303 
  298000       405000          107   -524731.57        32028        29472   0.76666667   0.78787879 
  299000       405000          107   -525707.83        33028        30390   0.77222222   0.78535354 
  300000       405000          107   -522289.19        34028        31295   0.77222222   0.78535354 
  301000       405000          107    -524589.1        35028        32209         0.75   0.79545455 
  302000       405000          107   -524783.53        36028        33133   0.77222222   0.78535354 
  303000       405000          107   -524908.62        37028        34060   0.76666667   0.78787879 
  304000       405000          107   -525070.21        38028        34989         0.75   0.79545455 
  305000       405000          107   -524222.99        39028        35897   0.74444444    0.7979798 
  306000       405000          107   -524694.55        40028        36807   0.76111111   0.79040404 
  307000       405000          107   -523888.65        41028        37725   0.76111111   0.79040404 
  308000       405000          107   -525301.22        42028        38637   0.78333333   0.78030303 
  309000       405000          107   -522999.69        43028        39547   0.74444444    0.7979798 
  310000       405000          107   -523773.05        44028        40473   0.82777778   0.76010101 
  311000       405000          107   -524763.55        45028        41382   0.81666667   0.76515152 
  312000       405000          107   -524851.62        46028        42319   0.76111111   0.79040404 
  313000       405000          107    -524525.6        47028        43226   0.77777778   0.78282828 
  314000       405000          107   -524310.07        48028        44141         0.75   0.79545455 
  315000       405000          107   -525127.01        49028        45066   0.82222222   0.76262626 
  316000       405000          107      -525458        50028        45991   0.77222222   0.78535354 
  317000       405000          107    -523809.6        51028        46912   0.80555556   0.77020202 
  318000       405000          107   -526595.39        52028        47815   0.77222222   0.78535354 
  319000       405000          107   -523697.49        53028        48738   0.74444444    0.7979798 
  320000       405000          107   -526068.65        54028        49653   0.78333333   0.78030303 
  321000       405000          107   -524364.27        55028        50566          0.8   0.77272727 
  322000       405000          107    -525037.2        56028        51486   0.82222222   0.76262626 
  323000       405000          107   -524322.63        57028        52409   0.73888889   0.80050505 
  324000       405000          107   -524321.77        58028        53339   0.78333333   0.78030303 
  325000       405000          107   -524966.31        59028        54237   0.80555556   0.77020202 
  326000       405000          107   -524560.42        60028        55153   0.74444444    0.7979798 
  327000       405000          107   -524133.47        61028        56085   0.78333333   0.78030303 
  328000       405000          107   -525630.87        62028        57016   0.76666667   0.78787879 
  329000       405000          107   -522740.06        63028        57946   0.76666667   0.78787879 
  330000       405000          107   -525330.15        64028        58876   0.78333333   0.78030303 
  331000       405000          107    -525273.6        65028        59785   0.79444444   0.77525253 
  332000       405000          107   -523923.24        66028        60706   0.78888889   0.77777778 
  333000       405000          107      -524481        67028        61627   0.79444444   0.77525253 
  334000       405000          107   -525988.38        68028        62550   0.77777778   0.78282828 
  335000       405000          107   -523912.44        69028        63461   0.76111111   0.79040404 
  336000       405000          107   -524450.23        70028        64382          0.8   0.77272727 
  337000       405000          107   -525687.83        71028        65300   0.78333333   0.78030303 
  338000       405000          107   -525916.01        72028        66227   0.81666667   0.76515152 
  339000       405000          107   -524434.83        73028        67150          0.8   0.77272727 
  340000       405000          107   -522326.07        74028        68059   0.76111111   0.79040404 
  341000       405000          107   -523636.65        75028        68996         0.75   0.79545455 
  342000       405000          107    -524255.9        76028        69923   0.76111111   0.79040404 
  343000       405000          107   -524064.51        77028        70841   0.78333333   0.78030303 
  344000       405000          107   -524940.08        78028        71769   0.74444444    0.7979798 
  345000       405000          107   -524457.06        79028        72706   0.80555556   0.77020202 
  346000       405000          107    -524731.4        80028        73626   0.81666667   0.76515152 
  347000       405000          107   -526033.15        81028        74556   0.79444444   0.77525253 
  348000       405000          107   -523833.36        82028        75488   0.79444444   0.77525253 
  348916       405000          107   -524744.63        82944        76338   0.75555556   0.79292929 
Loop time of 5013.85 on 20 procs for 82944 steps with 2970 atoms

Performance: 0.715 ns/day, 33.583 hours/ns, 16.543 timesteps/s
99.4% CPU use with 20 MPI tasks x no OpenMP threads

MPI task timing breakdown:
Section |  min time  |  avg time  |  max time  |%varavg| %total
---------------------------------------------------------------
Pair    | 2.2585     | 101.84     | 173.49     | 660.3 |  2.03
Bond    | 0.056428   | 0.18034    | 0.40475    |  33.7 |  0.00
Kspace  | 873.55     | 945.72     | 1045.8     | 218.2 | 18.86
Neigh   | 241.84     | 247.09     | 257.73     |  35.8 |  4.93
Comm    | 31.81      | 47.132     | 54.937     | 122.8 |  0.94
Output  | 0.012021   | 0.015416   | 0.022761   |   2.7 |  0.00
Modify  | 3666.8     | 3670.1     | 3674.8     |   5.1 | 73.20
Other   |            | 1.803      |            |       |  0.04

Nlocal:        148.500 ave         225 max          16 min
Histogram: 4 2 2 0 0 0 0 0 0 12
Nghost:        4129.20 ave        6386 max        2453 min
Histogram: 8 0 0 0 0 8 0 0 0 4
Neighs:        71283.4 ave      122110 max         595 min
Histogram: 4 0 4 0 0 0 2 2 0 8
FullNghs:      142562.0 ave      238698 max        8448 min
Histogram: 4 4 0 0 0 0 0 0 4 8

Total # of neighbors = 2851236
Ave neighs/atom = 960.01212
Ave special neighs/atom = 0.084848485
Neighbor list builds = 165888
Dangerous builds = 0

  variable cnum equal (${cnum}-1)
  variable cnum equal (107-1)

  unfix swp
  thermo_style custom step temp pe
  write_data  001-dbt_3x3_${layer}L_fa_${type}_${cnum}_${temp}K.data
  write_data  001-dbt_3x3_21L_fa_${type}_${cnum}_${temp}K.data
  write_data  001-dbt_3x3_21L_fa_tet_full_${cnum}_${temp}K.data
  write_data  001-dbt_3x3_21L_fa_tet_full_106_${temp}K.data
  write_data  001-dbt_3x3_21L_fa_tet_full_106_405000K.data
System init for write_data ...
PPPM initialization ...
  using 12-bit tables for long-range coulomb (../kspace.cpp:340)
  G vector (1/distance) = 0.2958869
  grid = 45 45 200
  stencil order = 5
  estimated absolute RMS force accuracy = 0.00034164501
  estimated relative force accuracy = 1.0288538e-06
  using double precision KISS FFT
  3d grid and FFT values/proc = 144150 77234

next temp
jump SELF minimize_temp

  variable ftemp equal v_temp

  # Minimize O-H bond
  group  immobile_1 type 1 2 3 6 7 8
2934 atoms in group immobile_1
  fix  freeze immobile_1 setforce 0.0 0.0 0.0
  minimize  1.0e-6 1.0e-9 1000 10000
PPPM initialization ...
  using 12-bit tables for long-range coulomb (../kspace.cpp:340)
  G vector (1/distance) = 0.2958869
  grid = 45 45 200
  stencil order = 5
  estimated absolute RMS force accuracy = 0.00034164501
  estimated relative force accuracy = 1.0288538e-06
  using double precision KISS FFT
  3d grid and FFT values/proc = 144150 77234
Per MPI rank memory allocation (min/avg/max) = 14.01 | 16.79 | 24.40 Mbytes
Step Temp PotEng 
  348916            0   -524744.63 
  348921            0   -524780.78 
Loop time of 0.154432 on 20 procs for 5 steps with 2970 atoms

99.3% CPU use with 20 MPI tasks x no OpenMP threads

Minimization stats:
  Stopping criterion = energy tolerance
  Energy initial, next-to-last, final = 
     -524744.628243528  -524780.418809187  -524780.781418497
  Force two-norm initial, final = 195.79658 25.950493
  Force max component initial, final = 65.875380 11.793952
  Final line search alpha, max atom move = 0.013141420 0.15498927
  Iterations, force evaluations = 5 10

MPI task timing breakdown:
Section |  min time  |  avg time  |  max time  |%varavg| %total
---------------------------------------------------------------
Pair    | 0.0004747  | 0.020084   | 0.033882   |   9.2 | 13.01
Bond    | 1.3391e-05 | 3.5591e-05 | 8.6541e-05 |   0.0 |  0.02
Kspace  | 0.11605    | 0.12993    | 0.14964    |   3.7 | 84.13
Neigh   | 0          | 0          | 0          |   0.0 |  0.00
Comm    | 0.0018655  | 0.0028813  | 0.0035831  |   1.2 |  1.87
Output  | 0          | 0          | 0          |   0.0 |  0.00
Modify  | 1.2056e-05 | 2.183e-05  | 2.6556e-05 |   0.0 |  0.01
Other   |            | 0.001478   |            |       |  0.96

Nlocal:        148.500 ave         225 max          16 min
Histogram: 4 2 2 0 0 0 0 0 0 12
Nghost:        4129.20 ave        6386 max        2453 min
Histogram: 8 0 0 0 0 8 0 0 0 4
Neighs:        71283.4 ave      122110 max         595 min
Histogram: 4 0 4 0 0 0 2 2 0 8
FullNghs:      142562.0 ave      238698 max        8448 min
Histogram: 4 4 0 0 0 0 0 0 4 8

Total # of neighbors = 2851236
Ave neighs/atom = 960.01212
Ave special neighs/atom = 0.084848485
Neighbor list builds = 0
Dangerous builds = 0
  unfix  freeze
  group immobile_1 delete

  # Minimize formate
  group  immobile_2 type 6 7 8 9 10
2898 atoms in group immobile_2
  fix  freeze immobile_2 setforce 0.0 0.0 0.0
  minimize  1.0e-6 1.0e-9 1000 10000
PPPM initialization ...
  using 12-bit tables for long-range coulomb (../kspace.cpp:340)
  G vector (1/distance) = 0.2958869
  grid = 45 45 200
  stencil order = 5
  estimated absolute RMS force accuracy = 0.00034164501
  estimated relative force accuracy = 1.0288538e-06
  using double precision KISS FFT
  3d grid and FFT values/proc = 144150 77234
Per MPI rank memory allocation (min/avg/max) = 14.01 | 16.79 | 24.40 Mbytes
Step Temp PotEng 
  348921            0   -524780.78 
  348927            0    -524795.2 
Loop time of 0.180104 on 20 procs for 6 steps with 2970 atoms

99.2% CPU use with 20 MPI tasks x no OpenMP threads

Minimization stats:
  Stopping criterion = energy tolerance
  Energy initial, next-to-last, final = 
     -524780.781418497  -524794.763178507  -524795.195697428
  Force two-norm initial, final = 93.366412 24.864471
  Force max component initial, final = 34.058396 6.4692122
  Final line search alpha, max atom move = 0.0042925206 0.027769226
  Iterations, force evaluations = 6 12

MPI task timing breakdown:
Section |  min time  |  avg time  |  max time  |%varavg| %total
---------------------------------------------------------------
Pair    | 0.00058317 | 0.023857   | 0.040566   |  10.0 | 13.25
Bond    | 1.6614e-05 | 4.3701e-05 | 0.00010943 |   0.0 |  0.02
Kspace  | 0.13457    | 0.15138    | 0.17477    |   4.0 | 84.05
Neigh   | 0          | 0          | 0          |   0.0 |  0.00
Comm    | 0.0020875  | 0.0032276  | 0.0040441  |   1.3 |  1.79
Output  | 0          | 0          | 0          |   0.0 |  0.00
Modify  | 1.5357e-05 | 2.4763e-05 | 2.9917e-05 |   0.0 |  0.01
Other   |            | 0.001574   |            |       |  0.87

Nlocal:        148.500 ave         226 max          16 min
Histogram: 4 2 2 0 0 0 0 0 0 12
Nghost:        4129.20 ave        6386 max        2453 min
Histogram: 8 0 0 0 0 8 0 0 0 4
Neighs:        71282.4 ave      122110 max         595 min
Histogram: 4 0 4 0 0 0 2 2 0 8
FullNghs:      142562.0 ave      238698 max        8448 min
Histogram: 4 4 0 0 0 0 0 0 4 8

Total # of neighbors = 2851236
Ave neighs/atom = 960.01212
Ave special neighs/atom = 0.084848485
Neighbor list builds = 0
Dangerous builds = 0
  unfix  freeze
  group immobile_2 delete

  # Electrostatic relaxation
  fix  swp fe atom/swap 1 1 ${rand} ${temp} ke no types 6 7
  fix  swp fe atom/swap 1 1 5979850 ${temp} ke no types 6 7
  fix  swp fe atom/swap 1 1 5979850 364500 ke no types 6 7
  thermo 1000
  thermo_style custom step v_ftemp v_cnum pe f_swp[1] f_swp[2] v_rfet3 v_rfeo3
  run ${nsteps}
  run 82944
PPPM initialization ...
  using 12-bit tables for long-range coulomb (../kspace.cpp:340)
  G vector (1/distance) = 0.2958869
  grid = 45 45 200
  stencil order = 5
  estimated absolute RMS force accuracy = 0.00034164501
  estimated relative force accuracy = 1.0288538e-06
  using double precision KISS FFT
  3d grid and FFT values/proc = 144150 77234
Per MPI rank memory allocation (min/avg/max) = 12.88 | 15.66 | 23.28 Mbytes
Step v_ftemp v_cnum PotEng f_swp[1] f_swp[2] v_rfet3 v_rfeo3 
  348927       364500          106    -524795.2            0            0   0.76111111   0.79040404 
  349000       364500          106   -524128.31           73           68   0.78888889   0.77777778 
  350000       364500          106    -525795.6         1073          999          0.8   0.77272727 
  351000       364500          106   -525043.75         2073         1898   0.78888889   0.77777778 
  352000       364500          106   -524182.02         3073         2791   0.79444444   0.77525253 
  353000       364500          106   -524424.22         4073         3714   0.77777778   0.78282828 
  354000       364500          106    -524636.6         5073         4621   0.78888889   0.77777778 
  355000       364500          106   -522369.21         6073         5535   0.77222222   0.78535354 
  356000       364500          106   -524056.05         7073         6458          0.7   0.81818182 
  357000       364500          106   -524524.53         8073         7379   0.73888889   0.80050505 
  358000       364500          106   -524256.26         9073         8302   0.77222222   0.78535354 
  359000       364500          106   -524699.99        10073         9197   0.72777778   0.80555556 
  360000       364500          106   -524209.85        11073        10120   0.72777778   0.80555556 
  361000       364500          106   -523896.34        12073        11040   0.78888889   0.77777778 
  362000       364500          106   -525084.75        13073        11959          0.8   0.77272727 
  363000       364500          106   -524643.84        14073        12873   0.76111111   0.79040404 
  364000       364500          106   -525678.41        15073        13799   0.80555556   0.77020202 
  365000       364500          106   -521754.19        16073        14724   0.76111111   0.79040404 
  366000       364500          106   -524048.66        17073        15644   0.81666667   0.76515152 
  367000       364500          106   -523048.54        18073        16558   0.79444444   0.77525253 
  368000       364500          106   -523883.64        19073        17490   0.81666667   0.76515152 
  369000       364500          106   -523743.71        20073        18404   0.75555556   0.79292929 
  370000       364500          106    -524850.1        21073        19312         0.75   0.79545455 
  371000       364500          106   -525276.92        22073        20217   0.79444444   0.77525253 
  372000       364500          106   -524357.67        23073        21139   0.81111111   0.76767677 
  373000       364500          106   -525473.17        24073        22067   0.77777778   0.78282828 
  374000       364500          106   -525893.96        25073        22994   0.73888889   0.80050505 
  375000       364500          106   -524324.73        26073        23894   0.74444444    0.7979798 
  376000       364500          106   -523103.64        27073        24794   0.80555556   0.77020202 
  377000       364500          106   -524751.93        28073        25717   0.76666667   0.78787879 
  378000       364500          106   -523939.86        29073        26624   0.80555556   0.77020202 
  379000       364500          106   -525537.15        30073        27540   0.77222222   0.78535354 
  380000       364500          106   -525063.61        31073        28446   0.74444444    0.7979798 
  381000       364500          106   -525077.73        32073        29369   0.76666667   0.78787879 
  382000       364500          106   -523834.99        33073        30285   0.79444444   0.77525253 
  383000       364500          106      -523696        34073        31199         0.75   0.79545455 
  384000       364500          106   -526371.99        35073        32114   0.81666667   0.76515152 
  385000       364500          106   -521466.98        36073        33025   0.79444444   0.77525253 
  386000       364500          106    -524022.4        37073        33945   0.81111111   0.76767677 
  387000       364500          106   -524556.57        38073        34843   0.76111111   0.79040404 
  388000       364500          106   -523816.93        39073        35741         0.75   0.79545455 
  389000       364500          106   -525236.14        40073        36661   0.76111111   0.79040404 
  390000       364500          106   -524871.91        41073        37579   0.81111111   0.76767677 
  391000       364500          106    -523640.8        42073        38492   0.77222222   0.78535354 
  392000       364500          106   -526438.63        43073        39400   0.76666667   0.78787879 
  393000       364500          106   -524903.58        44073        40310   0.75555556   0.79292929 
  394000       364500          106   -524771.88        45073        41208   0.78888889   0.77777778 
  395000       364500          106   -524842.23        46073        42123   0.81111111   0.76767677 
  396000       364500          106   -523100.56        47073        43046          0.8   0.77272727 
  397000       364500          106    -524015.2        48073        43968   0.77777778   0.78282828 
  398000       364500          106   -525849.93        49073        44867         0.75   0.79545455 
  399000       364500          106   -524635.08        50073        45779   0.78888889   0.77777778 
  400000       364500          106   -525292.16        51073        46692   0.79444444   0.77525253 
  401000       364500          106   -522701.39        52073        47601   0.77777778   0.78282828 
  402000       364500          106   -525155.63        53073        48513   0.79444444   0.77525253 
  403000       364500          106   -526046.68        54073        49421   0.78888889   0.77777778 
  404000       364500          106   -523821.33        55073        50321   0.73333333    0.8030303 
  405000       364500          106   -523843.65        56073        51240   0.75555556   0.79292929 
  406000       364500          106   -525168.02        57073        52147   0.77222222   0.78535354 
  407000       364500          106   -524737.94        58073        53054   0.77777778   0.78282828 
  408000       364500          106    -525023.7        59073        53947   0.78333333   0.78030303 
  409000       364500          106   -525031.22        60073        54847   0.80555556   0.77020202 
  410000       364500          106   -525512.59        61073        55763   0.74444444    0.7979798 
  411000       364500          106   -523994.56        62073        56682          0.8   0.77272727 
  412000       364500          106    -523116.3        63073        57601   0.77777778   0.78282828 
  413000       364500          106   -524711.57        64073        58509   0.77222222   0.78535354 
[...]
 9052000            2            2   -530799.32        76318            0            1   0.68181818 
 9053000            2            2   -530799.32        77318            0            1   0.68181818 
 9054000            2            2   -530799.32        78318            0            1   0.68181818 
 9055000            2            2   -530799.32        79318            0            1   0.68181818 
 9056000            2            2   -530799.32        80318            0            1   0.68181818 
 9057000            2            2   -530799.32        81318            0            1   0.68181818 
 9058000            2            2   -530799.32        82318            0            1   0.68181818 
 9058626            2            2   -530799.32        82944            0            1   0.68181818 
Loop time of 5079.72 on 20 procs for 82944 steps with 2970 atoms

Performance: 0.705 ns/day, 34.024 hours/ns, 16.328 timesteps/s
99.4% CPU use with 20 MPI tasks x no OpenMP threads

MPI task timing breakdown:
Section |  min time  |  avg time  |  max time  |%varavg| %total
---------------------------------------------------------------
Pair    | 1.7754     | 101.7      | 174.11     | 661.8 |  2.00
Bond    | 0.056625   | 0.1738     | 0.45898    |  33.5 |  0.00
Kspace  | 883.23     | 956.19     | 1056.6     | 217.4 | 18.82
Neigh   | 242.46     | 248.06     | 259.07     |  36.8 |  4.88
Comm    | 31.103     | 46.774     | 54.733     | 125.3 |  0.92
Output  | 0.012565   | 0.016056   | 0.023498   |   2.7 |  0.00
Modify  | 3721.7     | 3725       | 3729.6     |   5.0 | 73.33
Other   |            | 1.834      |            |       |  0.04

Nlocal:        148.500 ave         225 max          16 min
Histogram: 4 2 2 0 0 0 0 0 0 12
Nghost:        4129.80 ave        6386 max        2457 min
Histogram: 8 0 0 0 0 8 0 0 0 4
Neighs:        71284.8 ave      122110 max         602 min
Histogram: 4 0 4 0 0 0 2 2 0 8
FullNghs:      142562.0 ave      238698 max        8448 min
Histogram: 4 4 0 0 0 0 0 0 4 8

Total # of neighbors = 2851236
Ave neighs/atom = 960.01212
Ave special neighs/atom = 0.084848485
Neighbor list builds = 165888
Dangerous builds = 0

  variable cnum equal (${cnum}-1)
  variable cnum equal (2-1)

  unfix swp
  thermo_style custom step temp pe
  write_data  001-dbt_3x3_${layer}L_fa_${type}_${cnum}_${temp}K.data
  write_data  001-dbt_3x3_21L_fa_${type}_${cnum}_${temp}K.data
  write_data  001-dbt_3x3_21L_fa_tet_full_${cnum}_${temp}K.data
  write_data  001-dbt_3x3_21L_fa_tet_full_1_${temp}K.data
  write_data  001-dbt_3x3_21L_fa_tet_full_1_2K.data
System init for write_data ...
PPPM initialization ...
  using 12-bit tables for long-range coulomb (../kspace.cpp:340)
  G vector (1/distance) = 0.2958869
  grid = 45 45 200
  stencil order = 5
  estimated absolute RMS force accuracy = 0.00034164501
  estimated relative force accuracy = 1.0288538e-06
  using double precision KISS FFT
  3d grid and FFT values/proc = 144150 77234

next temp
jump SELF minimize_temp

  variable ftemp equal v_temp

  # Minimize O-H bond
  group  immobile_1 type 1 2 3 6 7 8
2934 atoms in group immobile_1
  fix  freeze immobile_1 setforce 0.0 0.0 0.0
  minimize  1.0e-6 1.0e-9 1000 10000
PPPM initialization ...
  using 12-bit tables for long-range coulomb (../kspace.cpp:340)
  G vector (1/distance) = 0.2958869
  grid = 45 45 200
  stencil order = 5
  estimated absolute RMS force accuracy = 0.00034164501
  estimated relative force accuracy = 1.0288538e-06
  using double precision KISS FFT
  3d grid and FFT values/proc = 144150 77234
Per MPI rank memory allocation (min/avg/max) = 14.01 | 16.79 | 24.40 Mbytes
Step Temp PotEng 
 9058626            0   -530799.32 
 9058627            0   -530799.32 
Loop time of 0.0436249 on 20 procs for 1 steps with 2970 atoms

98.6% CPU use with 20 MPI tasks x no OpenMP threads

Minimization stats:
  Stopping criterion = energy tolerance
  Energy initial, next-to-last, final = 
     -530799.324788524  -530799.324788524  -530799.324953367
  Force two-norm initial, final = 0.14997638 0.52115041
  Force max component initial, final = 0.074327085 0.18751312
  Final line search alpha, max atom move = 1.0000000 0.18751312
  Iterations, force evaluations = 1 2

MPI task timing breakdown:
Section |  min time  |  avg time  |  max time  |%varavg| %total
---------------------------------------------------------------
Pair    | 9.5239e-05 | 0.0054638  | 0.0092286  |   4.8 | 12.52
Bond    | 4.106e-06  | 1.0304e-05 | 2.7706e-05 |   0.0 |  0.02
Kspace  | 0.032606   | 0.036392   | 0.041778   |   1.9 | 83.42
Neigh   | 0          | 0          | 0          |   0.0 |  0.00
Comm    | 0.00051678 | 0.0007945  | 0.00099284 |   0.0 |  1.82
Output  | 0          | 0          | 0          |   0.0 |  0.00
Modify  | 4.587e-06  | 6.5763e-06 | 8.577e-06  |   0.0 |  0.02
Other   |            | 0.0009572  |            |       |  2.19

Nlocal:        148.500 ave         225 max          16 min
Histogram: 4 2 2 0 0 0 0 0 0 12
Nghost:        4129.80 ave        6386 max        2457 min
Histogram: 8 0 0 0 0 8 0 0 0 4
Neighs:        71284.8 ave      122110 max         602 min
Histogram: 4 0 4 0 0 0 2 2 0 8
FullNghs:      142562.0 ave      238698 max        8448 min
Histogram: 4 4 0 0 0 0 0 0 4 8

Total # of neighbors = 2851236
Ave neighs/atom = 960.01212
Ave special neighs/atom = 0.084848485
Neighbor list builds = 0
Dangerous builds = 0
  unfix  freeze
  group immobile_1 delete

  # Minimize formate
  group  immobile_2 type 6 7 8 9 10
2898 atoms in group immobile_2
  fix  freeze immobile_2 setforce 0.0 0.0 0.0
  minimize  1.0e-6 1.0e-9 1000 10000
PPPM initialization ...
  using 12-bit tables for long-range coulomb (../kspace.cpp:340)
  G vector (1/distance) = 0.2958869
  grid = 45 45 200
  stencil order = 5
  estimated absolute RMS force accuracy = 0.00034164501
  estimated relative force accuracy = 1.0288538e-06
  using double precision KISS FFT
  3d grid and FFT values/proc = 144150 77234
Per MPI rank memory allocation (min/avg/max) = 14.01 | 16.79 | 24.40 Mbytes
Step Temp PotEng 
 9058627            0   -530799.32 
 9058628            0   -530799.33 
Loop time of 0.0424502 on 20 procs for 1 steps with 2970 atoms

98.9% CPU use with 20 MPI tasks x no OpenMP threads

Minimization stats:
  Stopping criterion = energy tolerance
  Energy initial, next-to-last, final = 
     -530799.324953367  -530799.324953367  -530799.328019373
  Force two-norm initial, final = 2.8998663 3.5318640
  Force max component initial, final = 0.53331547 0.99655818
  Final line search alpha, max atom move = 0.18750628 0.18686092
  Iterations, force evaluations = 1 2

MPI task timing breakdown:
Section |  min time  |  avg time  |  max time  |%varavg| %total
---------------------------------------------------------------
Pair    | 0.00011269 | 0.0054868  | 0.0092777  |   4.8 | 12.93
Bond    | 3.9069e-06 | 1.0499e-05 | 2.6637e-05 |   0.0 |  0.02
Kspace  | 0.031315   | 0.03514    | 0.040534   |   1.9 | 82.78
Neigh   | 0          | 0          | 0          |   0.0 |  0.00
Comm    | 0.00055152 | 0.0008693  | 0.0010734  |   0.0 |  2.05
Output  | 0          | 0          | 0          |   0.0 |  0.00
Modify  | 5e-06      | 7.6952e-06 | 1.1066e-05 |   0.0 |  0.02
Other   |            | 0.0009362  |            |       |  2.21

Nlocal:        148.500 ave         225 max          16 min
Histogram: 4 2 2 0 0 0 0 0 0 12
Nghost:        4129.80 ave        6386 max        2457 min
Histogram: 8 0 0 0 0 8 0 0 0 4
Neighs:        71284.8 ave      122110 max         602 min
Histogram: 4 0 4 0 0 0 2 2 0 8
FullNghs:      142562.0 ave      238698 max        8448 min
Histogram: 4 4 0 0 0 0 0 0 4 8

Total # of neighbors = 2851236
Ave neighs/atom = 960.01212
Ave special neighs/atom = 0.084848485
Neighbor list builds = 0
Dangerous builds = 0
  unfix  freeze
  group immobile_2 delete

  # Electrostatic relaxation
  fix  swp fe atom/swap 1 1 ${rand} ${temp} ke no types 6 7
  fix  swp fe atom/swap 1 1 4097646 ${temp} ke no types 6 7
  fix  swp fe atom/swap 1 1 4097646 1 ke no types 6 7
  thermo 1000
  thermo_style custom step v_ftemp v_cnum pe f_swp[1] f_swp[2] v_rfet3 v_rfeo3
  run ${nsteps}
  run 82944
PPPM initialization ...
  using 12-bit tables for long-range coulomb (../kspace.cpp:340)
  G vector (1/distance) = 0.2958869
  grid = 45 45 200
  stencil order = 5
  estimated absolute RMS force accuracy = 0.00034164501
  estimated relative force accuracy = 1.0288538e-06
  using double precision KISS FFT
  3d grid and FFT values/proc = 144150 77234
Per MPI rank memory allocation (min/avg/max) = 12.88 | 15.67 | 23.28 Mbytes
Step v_ftemp v_cnum PotEng f_swp[1] f_swp[2] v_rfet3 v_rfeo3 
 9058628            1            1   -530799.33            0            0            1   0.68181818 
 9059000            1            1   -530799.33          372            0            1   0.68181818 
 9060000            1            1   -530799.33         1372            0            1   0.68181818 
 9061000            1            1   -530799.33         2372            0            1   0.68181818 
 9062000            1            1   -530799.33         3372            0            1   0.68181818 
 9063000            1            1   -530799.33         4372            0            1   0.68181818 
 9064000            1            1   -530799.33         5372            0            1   0.68181818 
 9065000            1            1   -530799.33         6372            0            1   0.68181818 
 9066000            1            1   -530799.33         7372            0            1   0.68181818 
 9067000            1            1   -530799.33         8372            0            1   0.68181818 
 9068000            1            1   -530799.33         9372            0            1   0.68181818 
 9069000            1            1   -530799.33        10372            0            1   0.68181818 
 9070000            1            1   -530799.33        11372            0            1   0.68181818 
 9071000            1            1   -530799.33        12372            0            1   0.68181818 
 9072000            1            1   -530799.33        13372            0            1   0.68181818 
 9073000            1            1   -530799.33        14372            0            1   0.68181818 
 9074000            1            1   -530799.33        15372            0            1   0.68181818 
 9075000            1            1   -530799.33        16372            0            1   0.68181818 
 9076000            1            1   -530799.33        17372            0            1   0.68181818 
 9077000            1            1   -530799.33        18372            0            1   0.68181818 
 9078000            1            1   -530799.33        19372            0            1   0.68181818 
 9079000            1            1   -530799.33        20372            0            1   0.68181818 
 9080000            1            1   -530799.33        21372            0            1   0.68181818 
 9081000            1            1   -530799.33        22372            0            1   0.68181818 
 9082000            1            1   -530799.33        23372            0            1   0.68181818 
 9083000            1            1   -530799.33        24372            0            1   0.68181818 
 9084000            1            1   -530799.33        25372            0            1   0.68181818 
 9085000            1            1   -530799.33        26372            0            1   0.68181818 
 9086000            1            1   -530799.33        27372            0            1   0.68181818 
 9087000            1            1   -530799.33        28372            0            1   0.68181818 
 9088000            1            1   -530799.33        29372            0            1   0.68181818 
 9089000            1            1   -530799.33        30372            0            1   0.68181818 
 9090000            1            1   -530799.33        31372            0            1   0.68181818 
 9091000            1            1   -530799.33        32372            0            1   0.68181818 
 9092000            1            1   -530799.33        33372            0            1   0.68181818 
 9093000            1            1   -530799.33        34372            0            1   0.68181818 
 9094000            1            1   -530799.33        35372            0            1   0.68181818 
 9095000            1            1   -530799.33        36372            0            1   0.68181818 
 9096000            1            1   -530799.33        37372            0            1   0.68181818 
 9097000            1            1   -530799.33        38372            0            1   0.68181818 
 9098000            1            1   -530799.33        39372            0            1   0.68181818 
 9099000            1            1   -530799.33        40372            0            1   0.68181818 
 9100000            1            1   -530799.33        41372            0            1   0.68181818 
 9101000            1            1   -530799.33        42372            0            1   0.68181818 
 9102000            1            1   -530799.33        43372            0            1   0.68181818 
 9103000            1            1   -530799.33        44372            0            1   0.68181818 
 9104000            1            1   -530799.33        45372            0            1   0.68181818 
 9105000            1            1   -530799.33        46372            0            1   0.68181818 
 9106000            1            1   -530799.33        47372            0            1   0.68181818 
 9107000            1            1   -530799.33        48372            0            1   0.68181818 
 9108000            1            1   -530799.33        49372            0            1   0.68181818 
 9109000            1            1   -530799.33        50372            0            1   0.68181818 
 9110000            1            1   -530799.33        51372            0            1   0.68181818 
 9111000            1            1   -530799.33        52372            0            1   0.68181818 
 9112000            1            1   -530799.33        53372            0            1   0.68181818 
 9113000            1            1   -530799.33        54372            0            1   0.68181818 
 9114000            1            1   -530799.33        55372            0            1   0.68181818 
 9115000            1            1   -530799.33        56372            0            1   0.68181818 
 9116000            1            1   -530799.33        57372            0            1   0.68181818 
 9117000            1            1   -530799.33        58372            0            1   0.68181818 
 9118000            1            1   -530799.33        59372            0            1   0.68181818 
 9119000            1            1   -530799.33        60372            0            1   0.68181818 
 9120000            1            1   -530799.33        61372            0            1   0.68181818 
 9121000            1            1   -530799.33        62372            0            1   0.68181818 
 9122000            1            1   -530799.33        63372            0            1   0.68181818 
 9123000            1            1   -530799.33        64372            0            1   0.68181818 
 9124000            1            1   -530799.33        65372            0            1   0.68181818 
 9125000            1            1   -530799.33        66372            0            1   0.68181818 
 9126000            1            1   -530799.33        67372            0            1   0.68181818 
 9127000            1            1   -530799.33        68372            0            1   0.68181818 
 9128000            1            1   -530799.33        69372            0            1   0.68181818 
 9129000            1            1   -530799.33        70372            0            1   0.68181818 
 9130000            1            1   -530799.33        71372            0            1   0.68181818 
 9131000            1            1   -530799.33        72372            0            1   0.68181818 
 9132000            1            1   -530799.33        73372            0            1   0.68181818 
 9133000            1            1   -530799.33        74372            0            1   0.68181818 
 9134000            1            1   -530799.33        75372            0            1   0.68181818 
 9135000            1            1   -530799.33        76372            0            1   0.68181818 
 9136000            1            1   -530799.33        77372            0            1   0.68181818 
 9137000            1            1   -530799.33        78372            0            1   0.68181818 
 9138000            1            1   -530799.33        79372            0            1   0.68181818 
 9139000            1            1   -530799.33        80372            0            1   0.68181818 
 9140000            1            1   -530799.33        81372            0            1   0.68181818 
 9141000            1            1   -530799.33        82372            0            1   0.68181818 
 9141572            1            1   -530799.33        82944            0            1   0.68181818 
Loop time of 5054.91 on 20 procs for 82944 steps with 2970 atoms

Performance: 0.709 ns/day, 33.858 hours/ns, 16.409 timesteps/s
99.4% CPU use with 20 MPI tasks x no OpenMP threads

MPI task timing breakdown:
Section |  min time  |  avg time  |  max time  |%varavg| %total
---------------------------------------------------------------
Pair    | 1.7733     | 101.81     | 174.33     | 662.3 |  2.01
Bond    | 0.056759   | 0.16899    | 0.40984    |  32.4 |  0.00
Kspace  | 880.73     | 953.81     | 1054.4     | 218.0 | 18.87
Neigh   | 242.17     | 247.58     | 258.32     |  36.0 |  4.90
Comm    | 31.2       | 46.636     | 54.476     | 123.8 |  0.92
Output  | 0.013005   | 0.016454   | 0.024025   |   2.7 |  0.00
Modify  | 3699.8     | 3703       | 3707.8     |   5.1 | 73.26
Other   |            | 1.848      |            |       |  0.04

Nlocal:        148.500 ave         225 max          16 min
Histogram: 4 2 2 0 0 0 0 0 0 12
Nghost:        4129.80 ave        6386 max        2457 min
Histogram: 8 0 0 0 0 8 0 0 0 4
Neighs:        71284.8 ave      122110 max         602 min
Histogram: 4 0 4 0 0 0 2 2 0 8
FullNghs:      142562.0 ave      238698 max        8448 min
Histogram: 4 4 0 0 0 0 0 0 4 8

Total # of neighbors = 2851236
Ave neighs/atom = 960.01212
Ave special neighs/atom = 0.084848485
Neighbor list builds = 165888
Dangerous builds = 0

  variable cnum equal (${cnum}-1)
  variable cnum equal (1-1)

  unfix swp
  thermo_style custom step temp pe
  write_data  001-dbt_3x3_${layer}L_fa_${type}_${cnum}_${temp}K.data
  write_data  001-dbt_3x3_21L_fa_${type}_${cnum}_${temp}K.data
  write_data  001-dbt_3x3_21L_fa_tet_full_${cnum}_${temp}K.data
  write_data  001-dbt_3x3_21L_fa_tet_full_0_${temp}K.data
  write_data  001-dbt_3x3_21L_fa_tet_full_0_1K.data
System init for write_data ...
PPPM initialization ...
  using 12-bit tables for long-range coulomb (../kspace.cpp:340)
  G vector (1/distance) = 0.2958869
  grid = 45 45 200
  stencil order = 5
  estimated absolute RMS force accuracy = 0.00034164501
  estimated relative force accuracy = 1.0288538e-06
  using double precision KISS FFT
  3d grid and FFT values/proc = 144150 77234

next temp
jump SELF minimize_temp

write_data  001-dbt_3x3_${layer}L_fa_${type}_qeq.data
write_data  001-dbt_3x3_21L_fa_${type}_qeq.data
write_data  001-dbt_3x3_21L_fa_tet_full_qeq.data
System init for write_data ...
PPPM initialization ...
  using 12-bit tables for long-range coulomb (../kspace.cpp:340)
  G vector (1/distance) = 0.2958869
  grid = 45 45 200
  stencil order = 5
  estimated absolute RMS force accuracy = 0.00034164501
  estimated relative force accuracy = 1.0288538e-06
  using double precision KISS FFT
  3d grid and FFT values/proc = 144150 77234
Total wall time: 154:54:15
