LAMMPS data file via write_data, version 17 Feb 2022, timestep = 28224

2925 atoms
10 atom types
36 bonds
6 bond types
54 angles
6 angle types
0 dihedrals
2 dihedral types
9 impropers
2 improper types

0 25.44 xlo xhi
0 25.44 ylo yhi
-41.458422 32.908 zlo zhi

Masses

1 12.011
2 1.008
3 15.9994
4 15.9994
5 1.008
6 55.845
7 55.845
8 15.9994
9 15.9994
10 1.008

Pair Coeffs # lj/cut/coul/long

1 0.0988 3.31521
2 0.0161 2.4473
3 0.1463 3.04812
4 0.093 3.24287
5 0.0047 0.537925
6 9.0298e-07 4.9062
7 9.0298e-07 4.9062
8 0.1554 3.16554
9 0.1554 3.16554
10 0 0

Bond Coeffs # harmonic

1 361.8 1.105
2 652.57 1.218
3 383.13 1.351
4 563.51 0.973
5 554.135 1
6 0 2.08

Angle Coeffs # harmonic

1 51.617 106.55
2 65.93 123.65
3 65.262 109.49
4 115.745 122.1
5 118.817 130.25
6 30 109.47

Dihedral Coeffs # fourier

1 1 2.3 2 180
2 2 2.3 2 180 1.9 1 0

Improper Coeffs # cvff

1 10.5 -1 2
2 10.5 -1 2

Atoms # full

9 0 7 1.575 2.394428347864196 3.3588250930973906 -29.44784242296333 0 0 0
79 0 7 1.575 6.617874463301945 7.618601693387863 -29.481341901322345 0 0 0
2 0 7 1.575 0.28019203524049985 1.2548445808952615 -29.44225692435963 0 0 0
72 0 7 1.575 4.503447232910613 5.489587250323094 -29.471398919264825 0 0 0
12 0 8 -1.05 4.367835978039018 3.5122584817449685 -29.440375144741935 0 0 0
75 0 8 -1.05 4.6413538535171615 7.445297940204063 -29.544926464078813 0 0 0
6 0 8 -1.05 2.242458770349866 1.393954920039682 -29.477683608605624 0 0 0
68 0 8 -1.05 2.5256105442352483 5.341256449840287 -29.404763226707157 0 0 0
76 0 8 -1.05 6.457395779998593 5.638203685006025 -29.51075605665605 0 0 0
5 0 8 -1.05 0.4374158513950612 3.2126140090801383 -29.520507851269304 0 0 0
18 0 8 -1.05 6.792670441110918 1.1261651524623242 -29.5929034981872 0 0 0
62 0 8 -1.05 0.12928223171779038 7.769848546713606 -29.415868997153424 0 0 0
15 0 7 1.575 5.602803197111205 2.2940971059347164 -28.67821763378487 0 0 0
65 0 7 1.575 1.3192826367351145 6.547735333204395 -28.57768958490026 0 0 0
78 0 6 1.05 6.675670816403607 5.482389355664021 -27.54080634190158 0 0 0
3 0 6 1.05 0.21727030542414702 3.4308129877346047 -27.557543585946448 0 0 0
73 0 6 1.05 4.453300482897557 7.664730665609408 -27.58819534969953 0 0 0
8 0 6 1.05 2.4435254054903113 1.2243460044760914 -27.49899359411944 0 0 0
7 0 8 -1.05 2.325189208657767 3.303644046553874 -27.362817852406316 0 0 0
74 0 8 -1.05 4.570924306359247 5.563091876940931 -27.38322854703267 0 0 0
69 0 8 -1.05 2.3635842175356814 7.626514227956281 -27.24877155011396 0 0 0
4 0 8 -1.05 0.3462132132472307 1.3324116592059703 -27.370176958305084 0 0 0
19 0 8 -1.05 6.747696044866326 3.327051066251964 -27.360585199613155 0 0 0
77 0 8 -1.05 6.524875831516375 7.540136018370768 -27.37534250637816 0 0 0
11 0 8 -1.05 4.571006439088631 1.1313949181212926 -27.432847751345268 0 0 0
61 0 8 -1.05 0.2736021147496384 5.513895587206439 -27.24650003172116 0 0 0
70 0 7 1.575 3.4281294488335443 4.461810178363666 -26.3675942021314 0 0 0
71 0 8 -1.05 4.339742199850654 7.741759732999828 -25.062123830003827 0 0 0
80 0 8 -1.05 6.679914111573512 5.322762569800102 -25.18600061606861 0 0 0
364 0 7 1.575 1.3172326469379636 2.3163919341319774 -24.29701001101416 0 0 0
412 0 7 1.575 5.578411154027607 6.547949496509337 -24.27493211117324 0 0 0
13 0 6 1.05 4.5117825653387476 1.2733748407831436 -25.45152125291791 0 0 0
407 0 6 1.05 2.3556509864973765 5.471394014633224 -23.16933725201427 0 0 0
404 0 6 1.05 0.2097565640079729 7.624361169771125 -23.17866893785376 0 0 0
63 0 7 1.575 0.2597059960208747 5.511843139892889 -25.310135390195292 0 0 0
370 0 7 1.575 4.488393434538066 3.373962000883039 -23.230494708134476 0 0 0
373 0 6 1.05 6.641231682244772 1.2449012257013958 -23.24751208969168 0 0 0
17 0 7 1.575 6.617212646523859 3.3539803020414807 -25.418910974648284 0 0 0
67 0 7 1.575 2.354096864661534 7.602934795472422 -25.30712311275772 0 0 0
16 0 8 -1.05 6.606070591070231 1.34760534533817 -25.24227312647925 0 0 0
405 0 8 -1.05 0.3030142407677941 5.577134170651571 -23.09371634864192 0 0 0
415 0 8 -1.05 6.72629789599116 7.591147621841961 -23.05276297977305 0 0 0
64 0 8 -1.05 0.3228824348003732 7.558876253012266 -25.1920502229051 0 0 0
409 0 8 -1.05 4.504469976146372 5.406733447851785 -23.01286703327628 0 0 0
372 0 8 -1.05 6.47039178613891 3.3200586990064944 -23.071367499687632 0 0 0
14 0 8 -1.05 4.5844917119036594 3.3755502008812956 -25.169568363036664 0 0 0
406 0 8 -1.05 2.2579070919005804 7.527762508736869 -23.060596532948644 0 0 0
300 0 7 1.575 24.621792867750536 17.166426912429014 -26.431429471134688 0 0 0
66 0 8 -1.05 2.3014218049947766 5.571185537003011 -25.183452935199732 0 0 0
367 0 8 -1.05 2.490859468180916 3.364010938254013 -23.103548140960278 0 0 0
10 0 8 -1.05 2.452425013641875 1.113706842502577 -25.191727427426276 0 0 0
1 0 8 -1.05 0.12012528320188362 3.5192187683834035 -25.12379545864246 0 0 0
361 0 8 -1.05 0.24877156047071677 1.2529024664955477 -23.029880278752543 0 0 0
20 0 7 1.575 7.665496127019436 0.2179365687325661 -26.459968030560855 0 0 0
82 0 8 -1.05 8.572026706578788 7.714136771493914 -29.474378207198885 0 0 0
29 0 6 1.05 10.868600779038518 3.3763511639313917 -29.928816776919767 0 0 0
22 0 7 1.575 8.764120123596301 1.2401779794326726 -29.652419137096626 0 0 0
26 0 8 -1.05 10.69929013137392 1.3622955825706913 -29.45001779486972 0 0 0
88 0 8 -1.05 11.006350793058944 5.390955571670899 -29.543290476992453 0 0 0
25 0 8 -1.05 8.844527801602718 3.176541382373463 -29.574953759810224 0 0 0
81 0 8 -1.05 8.796954378083324 5.400454751390853 -27.423625210359287 0 0 0
85 0 7 1.575 9.824918529084242 6.56972716590497 -28.66818166021999 0 0 0
23 0 7 1.575 8.75583110370232 3.44292609930318 -27.69009641229906 0 0 0
28 0 7 1.575 10.89318308250956 1.2630804290159676 -27.535837451968355 0 0 0
27 0 8 -1.05 10.689424715140388 3.2328398773817546 -27.19218199320226 0 0 0
89 0 8 -1.05 10.927620541262904 7.677188060125351 -27.412078871187006 0 0 0
24 0 8 -1.05 8.829320406362683 1.3615630837432158 -27.45140339978377 0 0 0
21 0 8 -1.05 8.569592023060123 3.4432716398626164 -25.14120137678757 0 0 0
375 0 8 -1.05 8.780104418484443 1.1535001288903877 -23.095433922140327 0 0 0
90 0 7 1.575 11.905780660057406 4.445457241135335 -26.391492153475422 0 0 0
378 0 7 1.575 9.831026497816504 2.315354149261205 -24.315069369205517 0 0 0
421 0 7 1.575 10.86950099982489 5.473148496389352 -23.168644177462138 0 0 0
418 0 7 1.575 8.729674644994864 7.594219887495454 -23.216364667378237 0 0 0
83 0 6 1.05 8.7475721191157 5.503876515762685 -25.43782873562225 0 0 0
87 0 6 1.05 10.822520056014413 7.57512413821452 -25.415911741618462 0 0 0
419 0 8 -1.05 8.881799134587133 5.626325576128899 -22.910966460029133 0 0 0
84 0 8 -1.05 8.725305395402268 7.597042286333138 -25.13676919009551 0 0 0
420 0 8 -1.05 10.724861385546234 7.471127958016736 -22.95267889661567 0 0 0
86 0 8 -1.05 10.83235545777927 5.492497289007652 -25.102895964640744 0 0 0
381 0 8 -1.05 10.935382940155952 3.4304360947681705 -23.091204319793714 0 0 0
30 0 8 -1.05 10.925619894094597 1.1561147843012414 -25.317791090821633 0 0 0
99 0 6 1.05 15.07238373995276 7.626889399517052 -29.834053186918513 0 0 0
92 0 7 1.575 12.942643382979481 5.482648923404053 -29.63019178656897 0 0 0
32 0 8 -1.05 12.879219963583417 3.534371777845173 -29.576251353413646 0 0 0
95 0 8 -1.05 13.054955092883532 7.433256585743475 -29.436460062779847 0 0 0
96 0 8 -1.05 14.894146590984029 5.604979747445899 -29.518080399270673 0 0 0
38 0 8 -1.05 15.24623792272233 1.135565742240142 -29.487751038544623 0 0 0
35 0 7 1.575 14.014125574255074 2.329395018565282 -28.67738822757838 0 0 0
98 0 7 1.575 15.1171696516653 5.475387780948548 -27.627226292955267 0 0 0
93 0 7 1.575 12.963884705086057 7.642381536932582 -27.528567882027314 0 0 0
94 0 8 -1.05 13.06389194405867 5.586784314648902 -27.381639731495994 0 0 0
39 0 8 -1.05 15.04047356607461 3.4809733322519696 -27.421503808462706 0 0 0
97 0 8 -1.05 14.943597484040797 7.455785895852372 -27.22949090107396 0 0 0
31 0 8 -1.05 12.91434904470589 1.2069163197245472 -27.428123964705627 0 0 0
91 0 8 -1.05 12.872491577125967 7.654162719657921 -25.27003714426583 0 0 0
100 0 8 -1.05 15.240749757740542 5.410342303858596 -25.19659450414822 0 0 0
426 0 7 1.575 14.02933254682918 6.539099184047549 -24.29909435191336 0 0 0
33 0 6 1.05 12.995431843966562 1.3015406826534242 -25.41935230311374 0 0 0
384 0 7 1.575 12.972408910471435 3.388828998196988 -23.182875181981426 0 0 0
387 0 7 1.575 15.090401379970482 1.2598036105650199 -23.190763289214114 0 0 0
37 0 6 1.05 15.080701240408676 3.3463819356707947 -25.43746078020419 0 0 0
36 0 8 -1.05 15.107325372618513 1.268113658071473 -25.12915675053294 0 0 0
429 0 8 -1.05 15.081213872969023 7.616970927699133 -23.021816438849914 0 0 0
423 0 8 -1.05 12.910444498587683 5.42787308513539 -23.078289254324424 0 0 0
386 0 8 -1.05 14.958871409470918 3.2455965765753154 -22.969981807504997 0 0 0
34 0 8 -1.05 12.986778219075926 3.3845724589620327 -25.11893959345271 0 0 0
385 0 8 -1.05 13.092800237595936 1.3879372914880015 -22.991849120130706 0 0 0
40 0 7 1.575 16.17611328084141 0.1721687689221958 -26.362885772160443 0 0 0
51 0 8 -1.05 21.46005878546359 1.2477493778328739 -27.268071728799846 0 0 0
117 0 8 -1.05 23.52217798562435 7.576528478469098 -27.402991154299677 0 0 0
59 0 8 -1.05 23.573061857808348 3.3690508640852923 -27.265907845994512 0 0 0
44 0 8 -1.05 17.27338899088046 1.309528885235918 -27.396363112420715 0 0 0
109 0 8 -1.05 19.297477002373142 7.751644157456562 -27.33440824258853 0 0 0
114 0 8 -1.05 21.54484119131717 5.594948030332917 -27.385042087269586 0 0 0
47 0 8 -1.05 19.252667418994367 3.2921734493196357 -27.3841972524293 0 0 0
48 0 6 1.05 19.38368408116399 1.204030782380258 -27.58351999058094 0 0 0
113 0 6 1.05 21.437635045298773 7.68474868397589 -27.53663369063964 0 0 0
43 0 6 1.05 17.158498271921037 3.3997028889672682 -27.514756940300256 0 0 0
118 0 6 1.05 23.636429895415134 5.455113510676381 -27.56293298278868 0 0 0
105 0 7 1.575 18.257667676348664 6.575830855795645 -28.610207893353287 0 0 0
55 0 7 1.575 22.52214741972531 2.3088815673522176 -28.584487394891855 0 0 0
101 0 8 -1.05 17.11299106941669 5.544078275487809 -27.322101504017834 0 0 0
58 0 8 -1.05 23.740160342542353 1.1094756167025712 -29.40901011608301 0 0 0
45 0 8 -1.05 17.37374523220779 3.2537887802820546 -29.49491186816544 0 0 0
116 0 8 -1.05 23.430194246537866 5.66297029752492 -29.52980969474015 0 0 0
108 0 8 -1.05 19.489623376535768 5.367553829042653 -29.389133793546527 0 0 0
46 0 8 -1.05 19.177258078660955 1.4353710068664822 -29.545549680744095 0 0 0
115 0 8 -1.05 21.618252790188745 7.473501016021241 -29.513533832843137 0 0 0
52 0 8 -1.05 21.316539658013188 3.5296265922766064 -29.395999151449633 0 0 0
112 0 7 1.575 21.468720146580313 5.510843349578585 -29.456114472544584 0 0 0
42 0 7 1.575 17.221729394524246 1.2935490484261125 -29.4754077364209 0 0 0
119 0 7 1.575 23.580809133061845 7.6183185697981495 -29.476823290271973 0 0 0
49 0 7 1.575 19.33504632368448 3.3921655140526576 -29.455930234637155 0 0 0
102 0 8 -1.05 17.109393554273364 7.772277198609622 -29.50048962594688 0 0 0
60 0 7 1.575 24.623993740559182 0.20683256059906258 -26.401634549049643 0 0 0
50 0 8 -1.05 19.470585636007122 1.1136271920664864 -25.1304268718774 0 0 0
395 0 8 -1.05 19.338661754509523 3.3887546846608516 -23.041554068617494 0 0 0
106 0 8 -1.05 19.264393861081725 5.584921407144534 -25.31300740224253 0 0 0
399 0 8 -1.05 21.537519984152784 1.3589880003934904 -23.102193017915017 0 0 0
434 0 8 -1.05 19.25972612847475 7.528241177577124 -23.14660991623885 0 0 0
54 0 8 -1.05 21.521260255713237 3.3080361785979764 -25.23880456919648 0 0 0
400 0 8 -1.05 23.480151425694007 3.2997923964089626 -23.12389515520795 0 0 0
437 0 8 -1.05 21.451469369684514 5.505488603894724 -23.02879682058893 0 0 0
104 0 8 -1.05 17.29987348346747 7.559068875618852 -25.28796051041818 0 0 0
443 0 8 -1.05 23.545448389320708 7.737021111668156 -23.078506077739497 0 0 0
433 0 8 -1.05 17.30743884286317 5.5958397436765175 -23.182287595546246 0 0 0
56 0 8 -1.05 23.50424685937861 1.3259937561987407 -25.224919026848358 0 0 0
107 0 7 1.575 19.334584383026446 7.617557854457524 -25.383407220192556 0 0 0
57 0 7 1.575 23.56443644914443 3.3708117270211746 -25.33094119960341 0 0 0
401 0 6 1.05 23.588423959913555 1.2426959114717648 -23.228122237411743 0 0 0
398 0 6 1.05 21.43469820181505 3.406303456744239 -23.24535155930573 0 0 0
103 0 7 1.575 17.21698015018116 5.512158109451382 -25.36875235192788 0 0 0
432 0 6 1.05 17.199322358206267 7.648726215941193 -23.290376950870517 0 0 0
435 0 6 1.05 19.355953612327372 5.4831306317634985 -23.316684283658617 0 0 0
53 0 7 1.575 21.46619903291865 1.2639355225146842 -25.33239030041817 0 0 0
440 0 7 1.575 22.5130282367751 6.581188555182752 -24.30397625272666 0 0 0
392 0 7 1.575 18.263277361035694 2.3080916625120396 -24.30491725834 0 0 0
120 0 8 -1.05 23.703447029719086 5.374240224201446 -25.13560423942405 0 0 0
111 0 8 -1.05 21.304037305478136 7.700140788367503 -25.211089341796708 0 0 0
110 0 7 1.575 20.41470497904294 4.427176113770798 -26.42872198890639 0 0 0
389 0 8 -1.05 17.13206392941875 1.2032560107679156 -23.098078475775704 0 0 0
41 0 8 -1.05 17.150997852983604 3.53695570106092 -25.194160029293947 0 0 0
138 0 8 -1.05 6.71624000090816 9.57747704492481 -29.412987815196455 0 0 0
129 0 7 1.575 2.399713909877689 11.880545032680203 -29.512532125533983 0 0 0
122 0 7 1.575 0.2544894940607387 9.740194428283125 -29.543366744914643 0 0 0
132 0 8 -1.05 4.337198246760621 11.961641019539401 -29.37918175113179 0 0 0
126 0 8 -1.05 2.193229508890642 9.924668093993835 -29.60106150524254 0 0 0
125 0 8 -1.05 0.40193393470600114 11.721920654500407 -29.410172799157536 0 0 0
131 0 8 -1.05 4.4857217872823 9.763535224439606 -27.267941900132996 0 0 0
135 0 7 1.575 5.59069394947957 10.818755883268592 -28.565310207703433 0 0 0
123 0 7 1.575 0.2276049946912471 11.883416251194559 -27.48562442724649 0 0 0
128 0 6 1.05 2.4478026721944284 9.670251389811826 -27.653582421517974 0 0 0
127 0 8 -1.05 2.2328225476548065 11.788564283801717 -27.361892071442966 0 0 0
124 0 8 -1.05 0.3087606339949453 9.864435616513953 -27.406244780861112 0 0 0
139 0 8 -1.05 6.687550471691042 11.936039092032651 -27.331222065024996 0 0 0
140 0 7 1.575 7.656301482593454 8.681615528788628 -26.39537813017366 0 0 0
130 0 8 -1.05 2.484690809122632 9.59392910519335 -25.056199261388965 0 0 0
448 0 7 1.575 1.2879492549342055 10.81412288512754 -24.242908105590402 0 0 0
133 0 7 1.575 4.487498996841482 9.724959185651441 -25.348053464209954 0 0 0
454 0 7 1.575 4.471399523632849 11.852185477910222 -23.163794613767912 0 0 0
457 0 6 1.05 6.62466091890345 9.698920441716188 -23.20019928419059 0 0 0
137 0 6 1.05 6.609957704590355 11.827999217020848 -25.324519646445083 0 0 0
136 0 8 -1.05 6.48340022536388 9.715517675896411 -25.18471069875021 0 0 0
456 0 8 -1.05 6.429385654598355 11.738127309745487 -22.89927669505207 0 0 0
134 0 8 -1.05 4.424894943341301 11.737639960464316 -25.10232985060271 0 0 0
455 0 8 -1.05 4.543847276820585 9.866382172546892 -22.999130340626614 0 0 0
451 0 8 -1.05 2.411097275140295 11.850207060655238 -22.95888911589665 0 0 0
445 0 8 -1.05 0.13962492998717435 9.781228421625082 -22.970741831046663 0 0 0
121 0 8 -1.05 0.1680005003469721 11.904388628361625 -25.304856782709443 0 0 0
199 0 7 1.575 6.672378228785032 16.080421966505323 -29.512594809184463 0 0 0
192 0 6 1.05 4.53317811977604 13.965916855005052 -29.851739432736423 0 0 0
195 0 8 -1.05 4.754145785801904 15.993490825471536 -29.68862519715726 0 0 0
188 0 8 -1.05 2.4894627737745596 13.823682861014742 -29.448983351934288 0 0 0
196 0 8 -1.05 6.543242849596457 14.134306471571461 -29.344177104734943 0 0 0
182 0 8 -1.05 0.10307211661446429 16.185712294765548 -29.5357408956312 0 0 0
185 0 7 1.575 1.3033542007089078 15.041596137287744 -28.647453878523958 0 0 0
198 0 7 1.575 6.618861456234844 13.970131179814526 -27.431426943151553 0 0 0
193 0 6 1.05 4.428001355693834 16.102703527471387 -27.755944173126778 0 0 0
194 0 8 -1.05 4.67683989376577 14.155728482557553 -27.02420565397207 0 0 0
189 0 8 -1.05 2.3325746546722885 16.175022323982883 -27.358746929069234 0 0 0
197 0 8 -1.05 6.584848728466983 16.015156803624745 -27.382439655420967 0 0 0
181 0 8 -1.05 0.18960263232280267 13.916363341863855 -27.39385223201117 0 0 0
190 0 7 1.575 3.4297286708866643 12.894840648004841 -26.394640510291605 0 0 0
191 0 8 -1.05 4.2278486976411545 16.238216351778195 -24.83789564301117 0 0 0
200 0 8 -1.05 6.736214136551382 13.887931249657825 -25.177608107100923 0 0 0
496 0 7 1.575 5.5157948487093655 14.992437100129031 -24.280237476714706 0 0 0
491 0 6 1.05 2.3656344004234424 13.967562698258803 -23.237093389502224 0 0 0
488 0 7 1.575 0.2078836166247233 16.087970518235 -23.21596550797775 0 0 0
183 0 6 1.05 0.2562885543688427 13.96709631210404 -25.371105048233243 0 0 0
187 0 7 1.575 2.3592518547460952 16.066666370423455 -25.430268426889718 0 0 0
489 0 8 -1.05 0.2787158967454043 14.095199363378176 -23.02167335365586 0 0 0
499 0 8 -1.05 6.620291977078806 16.158495901611218 -23.062252739460263 0 0 0
184 0 8 -1.05 0.325523363125773 16.097187069652044 -25.158943790867664 0 0 0
493 0 8 -1.05 4.472370604069011 13.839750189576439 -23.048970859379757 0 0 0
490 0 8 -1.05 2.1446196187643616 15.988338115669839 -22.895263416012536 0 0 0
186 0 8 -1.05 2.3423785294162744 14.072772418080373 -25.22835676372196 0 0 0
149 0 7 1.575 10.902552787234796 11.895034772117544 -29.497739146076803 0 0 0
142 0 6 1.05 8.747822787021462 9.742949072951506 -29.760666090213753 0 0 0
146 0 8 -1.05 10.78695066844485 9.944367831808643 -29.366102664049556 0 0 0
145 0 8 -1.05 8.947394296003024 11.77630135046529 -29.381009057264933 0 0 0
143 0 7 1.575 8.702669194804482 11.874461566505719 -27.480799472702618 0 0 0
148 0 7 1.575 10.86983628465621 9.70686156825836 -27.462166343989214 0 0 0
147 0 8 -1.05 10.76087388468118 11.775776402387741 -27.28549152470036 0 0 0
144 0 8 -1.05 8.88457928890683 9.901854516634847 -27.15035421396043 0 0 0
459 0 8 -1.05 8.777894763827991 9.618315806882276 -23.003037763746004 0 0 0
141 0 8 -1.05 8.657096058225761 11.939146781067299 -25.17996473132919 0 0 0
150 0 8 -1.05 10.97262362747469 9.641777320299287 -25.280337864099558 0 0 0
462 0 7 1.575 9.808005337838164 10.744895772006158 -24.298479085485848 0 0 0
465 0 8 -1.05 10.935324861259057 11.907000178758777 -23.138933711506958 0 0 0
202 0 8 -1.05 8.644498354697854 16.24175211409862 -29.42325739137208 0 0 0
208 0 8 -1.05 10.982953794955465 13.83910178970722 -29.462259176289756 0 0 0
201 0 8 -1.05 8.684438020708358 13.907941604970441 -27.341966390825096 0 0 0
205 0 7 1.575 9.815611435564778 15.014932347526978 -28.574104426786434 0 0 0
209 0 8 -1.05 10.98131120810276 16.05959031902397 -27.311119624668688 0 0 0
210 0 7 1.575 11.961729372819526 12.917727845246358 -26.362976153883395 0 0 0
505 0 7 1.575 10.86602532545447 13.956030483244755 -23.195149535316474 0 0 0
502 0 6 1.05 8.740493175284298 16.107353570186103 -23.26176229412305 0 0 0
203 0 6 1.05 8.769367701277638 13.995443733824299 -25.33039855524375 0 0 0
207 0 7 1.575 10.867464158169168 16.1151995855286 -25.36761682962005 0 0 0
503 0 8 -1.05 8.909571809857402 14.057306253536275 -22.98501855707488 0 0 0
204 0 8 -1.05 8.86567527802187 16.118313015350843 -25.257345968841488 0 0 0
504 0 8 -1.05 10.813830702100109 15.94962374065144 -23.087908043688177 0 0 0
206 0 8 -1.05 10.884060928846777 14.06642647045335 -25.14172552945868 0 0 0
158 0 8 -1.05 15.251948543424028 9.647942318133087 -29.501677333977486 0 0 0
152 0 8 -1.05 12.84553420064413 12.00331362957507 -29.336123520727234 0 0 0
151 0 8 -1.05 12.929432688183978 9.663424797711134 -27.37093095000412 0 0 0
155 0 7 1.575 14.053657099790108 10.774977387379046 -28.591299840196204 0 0 0
159 0 8 -1.05 15.229884208430404 11.836307777933085 -27.332494238164156 0 0 0
160 0 7 1.575 16.186381460826297 8.68018888742564 -26.48854509442413 0 0 0
153 0 6 1.05 13.030344762259764 9.700587779135743 -25.354115662683938 0 0 0
468 0 7 1.575 12.97036973443411 11.833814996429789 -23.19672051440486 0 0 0
471 0 6 1.05 15.111424662020571 9.687721087398716 -23.279577305586166 0 0 0
157 0 7 1.575 15.136110752066315 11.837587187136755 -25.393523884988287 0 0 0
156 0 8 -1.05 15.144739592986953 9.824212860188277 -25.264974730692607 0 0 0
470 0 8 -1.05 14.93589613175755 11.719344140683905 -22.97044593443504 0 0 0
154 0 8 -1.05 13.11430488101777 11.837466440301029 -25.14679381747885 0 0 0
469 0 8 -1.05 13.03041908444292 9.86101678080749 -23.00062778426462 0 0 0
219 0 7 1.575 15.14327111211527 16.13829817345447 -29.565988783482073 0 0 0
212 0 6 1.05 13.016028414920699 13.997461976736222 -29.88927244784528 0 0 0
215 0 8 -1.05 13.188395185070254 16.013763799578374 -29.444410375869317 0 0 0
216 0 8 -1.05 15.04531365850933 14.209735820267564 -29.668280691591708 0 0 0
218 0 6 1.05 15.128970738711129 13.923705629407774 -27.722741319936745 0 0 0
213 0 7 1.575 13.006400360455132 16.101501810508225 -27.54671508653632 0 0 0
214 0 8 -1.05 13.1889203112708 14.186400182315607 -27.01449058487481 0 0 0
217 0 8 -1.05 15.046613096912774 16.06430274066325 -27.423622920669388 0 0 0
211 0 8 -1.05 12.846150279491422 16.23183106210623 -25.152639376716603 0 0 0
220 0 8 -1.05 15.28171169567261 13.760862888201753 -24.937376704694653 0 0 0
510 0 7 1.575 14.013360304302802 15.003343680267701 -24.335573521569362 0 0 0
513 0 8 -1.05 15.185568369072895 16.09287011490361 -23.14284157503237 0 0 0
507 0 8 -1.05 12.894119434710408 13.8780624611391 -23.125603474911383 0 0 0
179 0 8 -1.05 23.63622666752115 11.915562303522002 -27.443307677972182 0 0 0
164 0 8 -1.05 17.32812124702902 9.857376773561795 -27.45793206929596 0 0 0
167 0 8 -1.05 19.17190908260801 11.703558300681657 -27.208744216026215 0 0 0
168 0 7 1.575 19.385532040261346 9.754617108022504 -27.665570124258192 0 0 0
163 0 7 1.575 17.23492493947375 11.90661950803214 -27.688075399936302 0 0 0
175 0 7 1.575 22.51618632012013 10.816470935552786 -28.71863036207266 0 0 0
171 0 8 -1.05 21.362741579057428 9.815674234558648 -27.455689602220097 0 0 0
165 0 8 -1.05 17.32647645085236 11.66794081834404 -29.57600553178351 0 0 0
166 0 8 -1.05 19.1505252771701 9.839834401854642 -29.556912273131218 0 0 0
172 0 8 -1.05 21.398245298406028 12.015545742962003 -29.647078535883463 0 0 0
162 0 7 1.575 17.19228572893847 9.711965282817342 -29.67360241807458 0 0 0
169 0 6 1.05 19.35650354268008 11.863100552753526 -29.978084724587273 0 0 0
178 0 8 -1.05 23.73469930011342 9.599054002949204 -29.513416673476275 0 0 0
479 0 8 -1.05 19.440325043503343 11.856929296606523 -22.967920942840657 0 0 0
483 0 8 -1.05 21.59190918060553 9.890302587806403 -22.93296789308689 0 0 0
174 0 8 -1.05 21.446826139171865 11.856873607616802 -25.136846945812398 0 0 0
484 0 8 -1.05 23.441666465067474 11.729370983701072 -22.96229092800057 0 0 0
176 0 8 -1.05 23.574003296198 9.743433047479222 -25.146747946529505 0 0 0
177 0 6 1.05 23.532243559515287 11.831544885626274 -25.443736668592468 0 0 0
485 0 7 1.575 23.56296832906524 9.734706724514393 -23.221675017436553 0 0 0
482 0 7 1.575 21.45105125280447 11.876223672660739 -23.210616528911398 0 0 0
173 0 6 1.05 21.476633428700474 9.761527410923811 -25.47218454792255 0 0 0
476 0 7 1.575 18.32186492935415 10.786005001729222 -24.228413832177132 0 0 0
170 0 8 -1.05 19.41418031150995 9.584374389198961 -25.177071837833882 0 0 0
161 0 8 -1.05 17.10673276222865 11.903120645930532 -25.119268772677486 0 0 0
473 0 8 -1.05 17.225482568647998 9.720834572947533 -22.97346726387787 0 0 0
180 0 7 1.575 24.66656706856881 8.679892784341684 -26.392784712721838 0 0 0
237 0 8 -1.05 23.5169721178492 15.97065946177626 -27.409309567197162 0 0 0
229 0 8 -1.05 19.335210515441684 16.094246514419215 -27.315239705783082 0 0 0
234 0 8 -1.05 21.587501662746494 14.019690600289367 -27.43411922102151 0 0 0
233 0 6 1.05 21.38154253102225 16.181166034736776 -27.72766378882109 0 0 0
238 0 7 1.575 23.598778681110286 13.957882714095936 -27.504579654004274 0 0 0
225 0 7 1.575 18.28213607814171 15.03179652928676 -28.647263447995034 0 0 0
221 0 8 -1.05 17.228184631879586 13.873192503759462 -27.42487032014406 0 0 0
236 0 8 -1.05 23.456745200105118 14.114349969737244 -29.430966785042436 0 0 0
228 0 8 -1.05 19.518047059229012 13.865622409717188 -29.462098287755445 0 0 0
235 0 8 -1.05 21.654902597615468 15.900206199382865 -29.66276307915079 0 0 0
232 0 7 1.575 21.463783525867882 13.954330974079149 -29.583735525614507 0 0 0
239 0 7 1.575 23.603624319122698 16.10456409509204 -29.583712861394915 0 0 0
222 0 8 -1.05 17.117191872366295 16.284640923107307 -29.458850987131832 0 0 0
226 0 8 -1.05 19.36832114760262 14.092895494071788 -25.225108337191333 0 0 0
518 0 8 -1.05 19.208217263732816 16.072018021469415 -23.099927594036544 0 0 0
521 0 8 -1.05 21.489584440091708 13.876316049749484 -23.062429917111036 0 0 0
224 0 8 -1.05 17.32700667368742 16.116850370793077 -25.158660899349076 0 0 0
527 0 8 -1.05 23.633624549397933 16.058077219444414 -23.005761986604934 0 0 0
557 0 8 -1.05 17.22545662757987 18.131016355948066 -23.01348563175691 0 0 0
227 0 7 1.575 19.34993695634399 16.091063717388113 -25.385486387295686 0 0 0
223 0 6 1.05 17.2668412946721 13.965438756130148 -25.43594903717375 0 0 0
516 0 7 1.575 17.194305324183865 16.08862572079002 -23.217450174444767 0 0 0
519 0 6 1.05 19.385615859467684 13.986706019089144 -23.23868335172321 0 0 0
524 0 7 1.575 22.522932567569793 15.015408431137493 -24.296352271008175 0 0 0
240 0 8 -1.05 23.631593969848645 13.905222077556328 -25.350610055405166 0 0 0
231 0 8 -1.05 21.327613457133506 16.24885584059069 -25.086202663107972 0 0 0
230 0 7 1.575 20.392548137430943 12.926755194785615 -26.43980123755259 0 0 0
258 0 8 -1.05 6.8074445840717 18.067875004358193 -29.440320703581694 0 0 0
249 0 7 1.575 2.429239507120632 20.37259004298145 -29.58468145001227 0 0 0
319 0 7 1.575 6.65240844076069 24.589720450876275 -29.6599449685263 0 0 0
242 0 6 1.05 0.26316500857740505 18.226230082955077 -29.87414281003351 0 0 0
312 0 6 1.05 4.521512015322481 22.46029308478851 -30.023422819918046 0 0 0
252 0 8 -1.05 4.3746985128144065 20.45653086300968 -29.482765017984516 0 0 0
315 0 8 -1.05 4.694530250691141 24.470858922964375 -29.569239781116245 0 0 0
246 0 8 -1.05 2.2908057012151692 18.416908766802493 -29.463580681993662 0 0 0
308 0 8 -1.05 2.521915844981659 22.3187299402512 -29.43337503439641 0 0 0
316 0 8 -1.05 6.544392922029481 22.665105344384745 -29.777374027964832 0 0 0
245 0 8 -1.05 0.47290745438488474 20.26420432944349 -29.50293963431963 0 0 0
302 0 8 -1.05 0.13718460377323194 24.715093643545078 -29.376545166727126 0 0 0
251 0 8 -1.05 4.392008649009921 18.188247368238827 -27.405837025961773 0 0 0
255 0 7 1.575 5.544550292487852 19.240199315432857 -28.645100264272948 0 0 0
305 0 7 1.575 1.352132394960948 23.511548829378732 -28.564477681788624 0 0 0
318 0 6 1.05 6.6392180108290635 22.38787016244433 -27.832597557419646 0 0 0
243 0 7 1.575 0.2092986624898301 20.347611584417827 -27.61327016930787 0 0 0
313 0 7 1.575 4.506166586345592 24.576229886357762 -27.67999354883216 0 0 0
248 0 7 1.575 2.3769335558857416 18.197010733744364 -27.564850392880466 0 0 0
247 0 8 -1.05 2.2773309617280537 20.242311500449702 -27.378573558767112 0 0 0
314 0 8 -1.05 4.712141148691257 22.696661252310236 -27.056169899096233 0 0 0
309 0 8 -1.05 2.5239007157793463 24.534314048927943 -27.2831540021261 0 0 0
244 0 8 -1.05 0.39531641374450627 18.383602764654835 -27.222605686416756 0 0 0
259 0 8 -1.05 6.686666753604199 20.31446406159694 -27.36726495562978 0 0 0
317 0 8 -1.05 6.558784762069123 24.556532344086374 -27.543199614803093 0 0 0
301 0 8 -1.05 0.29692028396236797 22.355685994963622 -27.290720119694424 0 0 0
260 0 7 1.575 7.705827232108231 17.189575284240483 -26.41058431221494 0 0 0
250 0 8 -1.05 2.4009596056545104 18.069821387235052 -25.289122562954223 0 0 0
310 0 7 1.575 3.4493499940356003 21.42829317271304 -26.454821856551145 0 0 0
311 0 8 -1.05 4.360443618786643 24.718751349664995 -25.009334197915575 0 0 0
320 0 8 -1.05 6.794515798465208 22.231527174929106 -24.882668841868842 0 0 0
532 0 7 1.575 1.2968318416279936 19.24364304058243 -24.29705571115429 0 0 0
580 0 7 1.575 5.563685389873422 23.49673144343611 -24.25013512252726 0 0 0
253 0 6 1.05 4.483012877746221 18.21985094288043 -25.405855028801422 0 0 0
575 0 6 1.05 2.3973188111109107 22.42499273644607 -23.255363657154696 0 0 0
572 0 6 1.05 0.2206897799808944 24.594951798283343 -23.272677403948823 0 0 0
303 0 7 1.575 0.26295742928450966 22.4635674669238 -25.334129541081015 0 0 0
538 0 6 1.05 4.485061784105863 20.35661714071036 -23.28282761726513 0 0 0
541 0 7 1.575 6.623279331043444 18.187017530251726 -23.254733924879 0 0 0
257 0 7 1.575 6.586837067687435 20.348613597826624 -25.423929201411323 0 0 0
307 0 7 1.575 2.3975577118407077 24.570789998831852 -25.32779646789364 0 0 0
256 0 8 -1.05 6.609703841417719 18.301858210906303 -25.194009724690524 0 0 0
573 0 8 -1.05 0.3393372849862689 22.54478993021192 -23.143751570471267 0 0 0
583 0 8 -1.05 6.724782928557276 24.573343621232528 -22.98581984057186 0 0 0
304 0 8 -1.05 0.33942342094250066 24.503100529265073 -25.276290150658582 0 0 0
577 0 8 -1.05 4.483194195586721 22.438241502766523 -22.977104529866786 0 0 0
540 0 8 -1.05 6.577644444260459 20.151855909379748 -23.058112063932978 0 0 0
254 0 8 -1.05 4.593806541164401 20.330213416848718 -25.273950086732174 0 0 0
574 0 8 -1.05 2.261128456348591 24.489706881640867 -23.10137273403777 0 0 0
539 0 8 -1.05 4.679600114498023 18.338976203440723 -22.923101620263083 0 0 0
306 0 8 -1.05 2.308349709764387 22.53241903017773 -25.252305451444002 0 0 0
535 0 8 -1.05 2.3877409428713765 20.306550144056928 -23.044070873107735 0 0 0
529 0 8 -1.05 0.2257159599225349 18.10169827167465 -23.086216221257942 0 0 0
241 0 8 -1.05 0.18956991979087837 20.484544569602196 -25.185969659131196 0 0 0
322 0 8 -1.05 8.628252638557893 24.732134816347 -29.565830610453695 0 0 0
269 0 7 1.575 10.890963478923211 20.3610428448779 -29.532955045089395 0 0 0
262 0 7 1.575 8.772696429885418 18.20930722696048 -29.52198394843641 0 0 0
264 0 8 -1.05 8.83032114918585 18.341692659179618 -27.418763221186417 0 0 0