LAMMPS (17 Feb 2022)
variable layer index 21
variable type string fa_tet_half_qeq
variable rand equal round(random(0,1e7,452345))
variable temp index 50000 45000 40500 36450 32805 29524 26571 23913 21521 19368 17431 15687 14118 12706 11435 10291 9261 8334 7500 6750 6075 5467 4920 4428 3985 3586 3227 2904 2613 2351 2115 1903 1712 1540 1386 1247 1122 1009 908 817 735 661 594 534 480 432 388 349 314 282 253 227 204 183 164 147 132 118 106 95 85 76 68 61 54 48 43 38 34 30 27 24 21 18 16 14 12 10 9 8 7 6 5 4 3 2 1
variable nsteps equal 324  # (nfe*nfe)/4

include settings.lmp
units              real
atom_style         full
timestep	   0.5
boundary	   p p f

pair_style         lj/cut/coul/long 12.0
bond_style         harmonic
angle_style        harmonic
dihedral_style     fourier
improper_style     cvff
kspace_style       pppm 1.0e-6
kspace_modify      slab 3.0

pair_modify        mix arithmetic
special_bonds      amber
neighbor           2.0 bin
neigh_modify       every 1 delay 0 check yes

read_data 001-dbt_3x3_${layer}L_${type}.data
read_data 001-dbt_3x3_21L_${type}.data
read_data 001-dbt_3x3_21L_fa_tet_half_qeq.data
Reading data file ...
  orthogonal box = (0 0 -41.458422) to (25.44 25.44 32.908)
  1 by 1 by 4 MPI processor grid
  reading atoms ...
  2925 atoms
  reading velocities ...
  2925 velocities
  scanning bonds ...
  3 = max bonds/atom
  scanning angles ...
  3 = max angles/atom
  scanning impropers ...
  1 = max impropers/atom
  reading bonds ...
  36 bonds
  reading angles ...
  54 angles
  reading impropers ...
  9 impropers
Finding 1-2 1-3 1-4 neighbors ...
  special bond factors lj:    0        0        0.5     
  special bond factors coul:  0        0        0.8333333333333334
     3 = max # of 1-2 neighbors
     2 = max # of 1-3 neighbors
     2 = max # of 1-4 neighbors
     3 = max # of special neighbors
  special bonds CPU = 0.000 seconds
  read_data CPU = 0.008 seconds

include ff_formic_acid_fe304.param
#####################-----formic_acid-----######################################

mass  1   12.011   # Sp2 C carbonyl group
mass  2    1.008   # H bonded to non-sp3 carbon with 2 electrwd. group
mass  3   15.9994  # Oxygen with one connected atom
mass  4   15.9994  # Oxygen in hydroxyl group
mass  5    1.008   # Hydroxyl group

pair_coeff  1  1   0.0988  3.31521230994  # c
pair_coeff  2  2   0.0161  2.44729877873  # h5
pair_coeff  3  3   0.1463  3.04812087425  # o
pair_coeff  4  4   0.0930  3.24287133403  # oh
pair_coeff  5  5   0.0047  0.537924646013 # ho

bond_coeff  1  361.80  1.105  # c-h5
bond_coeff  2  652.57  1.218  # c=o
bond_coeff  3  383.13  1.351  # c-oh
bond_coeff  4  563.51  0.973  # o-h

angle_coeff  1   51.617  106.550  # c-oh-ho
angle_coeff  2   65.930  123.650  # h5-c=o
angle_coeff  3   65.262  109.490  # h5-c-oh
angle_coeff  4  115.745  122.100  # o=c-oh

dihedral_coeff  1  1  2.3  2  180.0               # h5-c-oh-ho
dihedral_coeff  2  2  2.3  2  180.0  1.9  1  0.0  # o=c-oh-ho

                              #  h5
                              #  |
improper_coeff  1  10.5 -1 2  #  c
                              # / \
                              # o  oh

#####################-----formate-----###########################################

angle_coeff  5   118.817 130.250  # o-c-o

                              #  h5
                              #  |
improper_coeff  2  10.5 -1 2  #  c
                              # / \
                              # o  o

#####################-----magnetite-----#########################################

mass  6   55.845   # Iron(II)
mass  7   55.845   # Iron(III)
mass  8   15.9994  # Bridging oxygen
mass  9   15.9994  # Hydroxyl oxygen
mass  10   1.008   # Hydroxyl hydrogen

pair_coeff  6  6   9.0298e-07  4.90620  # fe2
pair_coeff  7  7   9.0298e-07  4.90620  # fe3
pair_coeff  8  8   0.1554      3.16554  # ob
pair_coeff  9  9   0.1554      3.16554  # oh
pair_coeff  10 10  0.0         0.0      # ho

bond_coeff  5  554.1349  1.0   # oh-ho
bond_coeff  6    0.0     2.08  # fe-oh (dummy bond)

angle_coeff  6   30.0  109.470  # fe-oh-ho

##################################################################################

group Fe type 6 7
1224 atoms in group Fe

region bottomFe block INF INF INF INF INF -28.5
group bottomFe region bottomFe
108 atoms in group bottomFe
group bFe intersect bottomFe Fe
36 atoms in group bFe


label minimize_temp

  variable ftemp equal v_temp

  # Electrostatic relaxation
  fix swp bFe atom/swap 1 1 ${rand} ${temp} ke no types 6 7
  fix swp bFe atom/swap 1 1 855824 ${temp} ke no types 6 7
  fix swp bFe atom/swap 1 1 855824 50000 ke no types 6 7
  thermo 100
  thermo_style custom step v_ftemp pe f_swp[1] f_swp[2]
  run ${nsteps}
  run 324
WARNING: No fixes with time integration, atoms won't move (../verlet.cpp:60)
PPPM initialization ...
  using 12-bit tables for long-range coulomb (../kspace.cpp:340)
  G vector (1/distance) = 0.29588697
  grid = 45 45 200
  stencil order = 5
  estimated absolute RMS force accuracy = 0.00034195275
  estimated relative force accuracy = 1.0297805e-06
  using double precision KISS FFT
  3d grid and FFT values/proc = 446148 301725
  generated 45 of 45 mixed pair_coeff terms from arithmetic mixing rule
Neighbor list info ...
  update every 1 steps, delay 0 steps, check yes
  max neighbors/atom: 2000, page size: 100000
  master list distance cutoff = 14
  ghost atom cutoff = 14
  binsize = 7, bins = 4 4 11
  1 neighbor lists, perpetual/occasional/extra = 1 0 0
  (1) pair lj/cut/coul/long, perpetual
      attributes: half, newton on
      pair build: half/bin/newton
      stencil: half/bin/3d
      bin: standard
Per MPI rank memory allocation (min/avg/max) = 21.22 | 29.57 | 51.96 Mbytes
Step v_ftemp PotEng f_swp[1] f_swp[2] 
       0        50000   -539337.92            0            0 
     100        50000    -539348.3          100           91 
     200        50000   -539312.43          200          184 
     300        50000   -539352.23          300          274 
     324        50000   -539349.71          324          297 
Loop time of 65.5746 on 4 procs for 324 steps with 2925 atoms

Performance: 0.213 ns/day, 112.439 hours/ns, 4.941 timesteps/s
89.9% CPU use with 4 MPI tasks x no OpenMP threads

MPI task timing breakdown:
Section |  min time  |  avg time  |  max time  |%varavg| %total
---------------------------------------------------------------
Pair    | 0.27938    | 1.5674     | 2.4541     |  73.4 |  2.39
Bond    | 0.00045493 | 0.0011254  | 0.0028529  |   3.0 |  0.00
Kspace  | 16.202     | 17.096     | 18.379     |  22.2 | 26.07
Neigh   | 3.8449     | 3.852      | 3.8628     |   0.4 |  5.87
Comm    | 0.12094    | 0.14036    | 0.15567    |   3.3 |  0.21
Output  | 7.0377e-05 | 0.00015342 | 0.00030346 |   0.0 |  0.00
Modify  | 42.905     | 42.91      | 42.915     |   0.1 | 65.44
Other   |            | 0.007183   |            |       |  0.01

Nlocal:         731.25 ave        1134 max         279 min
Histogram: 1 0 1 0 0 0 0 0 1 1
Nghost:           6900 ave        9526 max        4389 min
Histogram: 1 1 0 0 0 0 0 0 1 1
Neighs:         350442 ave      565947 max       59876 min
Histogram: 1 0 0 1 0 0 0 0 0 2

Total # of neighbors = 1401769
Ave neighs/atom = 479.23726
Ave special neighs/atom = 0.043076923
Neighbor list builds = 648
Dangerous builds = 0

  unfix swp
  thermo_style custom step temp pe

next temp
jump SELF minimize_temp

  variable ftemp equal v_temp

  # Electrostatic relaxation
  fix swp bFe atom/swap 1 1 ${rand} ${temp} ke no types 6 7
  fix swp bFe atom/swap 1 1 710414 ${temp} ke no types 6 7
  fix swp bFe atom/swap 1 1 710414 45000 ke no types 6 7
  thermo 100
  thermo_style custom step v_ftemp pe f_swp[1] f_swp[2]
  run ${nsteps}
  run 324
WARNING: No fixes with time integration, atoms won't move (../verlet.cpp:60)
PPPM initialization ...
  using 12-bit tables for long-range coulomb (../kspace.cpp:340)
  G vector (1/distance) = 0.29588697
  grid = 45 45 200
  stencil order = 5
  estimated absolute RMS force accuracy = 0.00034195275
  estimated relative force accuracy = 1.0297805e-06
  using double precision KISS FFT
  3d grid and FFT values/proc = 446148 301725
  generated 45 of 45 mixed pair_coeff terms from arithmetic mixing rule
Per MPI rank memory allocation (min/avg/max) = 21.22 | 29.57 | 51.96 Mbytes
Step v_ftemp PotEng f_swp[1] f_swp[2] 
     324        45000   -539349.71            0            0 
     400        45000   -539366.81           76           66 
     500        45000   -539235.62          176          152 
     600        45000   -539372.31          276          244 
     648        45000   -539388.66          324          288 
Loop time of 68.6573 on 4 procs for 324 steps with 2925 atoms

Performance: 0.204 ns/day, 117.725 hours/ns, 4.719 timesteps/s
94.1% CPU use with 4 MPI tasks x no OpenMP threads

MPI task timing breakdown:
Section |  min time  |  avg time  |  max time  |%varavg| %total
---------------------------------------------------------------
Pair    | 0.28852    | 1.5523     | 2.4763     |  73.1 |  2.26
Bond    | 0.0003491  | 0.00087176 | 0.0023768  |   0.0 |  0.00
Kspace  | 17.18      | 18.105     | 19.368     |  21.4 | 26.37
Neigh   | 3.8117     | 3.8207     | 3.8362     |   0.5 |  5.56
Comm    | 0.13885    | 0.15789    | 0.17121    |   3.2 |  0.23
Output  | 7.0841e-05 | 0.00016389 | 0.0003561  |   0.0 |  0.00
Modify  | 45.009     | 45.014     | 45.019     |   0.1 | 65.56
Other   |            | 0.00634    |            |       |  0.01

Nlocal:         731.25 ave        1134 max         279 min
Histogram: 1 0 1 0 0 0 0 0 1 1
Nghost:           6900 ave        9526 max        4389 min
Histogram: 1 1 0 0 0 0 0 0 1 1
Neighs:         350442 ave      565947 max       59876 min
Histogram: 1 0 0 1 0 0 0 0 0 2

Total # of neighbors = 1401769
Ave neighs/atom = 479.23726
Ave special neighs/atom = 0.043076923
Neighbor list builds = 648
Dangerous builds = 0

  unfix swp
  thermo_style custom step temp pe

next temp
jump SELF minimize_temp

  variable ftemp equal v_temp

  # Electrostatic relaxation
  fix swp bFe atom/swap 1 1 ${rand} ${temp} ke no types 6 7
  fix swp bFe atom/swap 1 1 755762 ${temp} ke no types 6 7
  fix swp bFe atom/swap 1 1 755762 40500 ke no types 6 7
  thermo 100
  thermo_style custom step v_ftemp pe f_swp[1] f_swp[2]
  run ${nsteps}
  run 324
WARNING: No fixes with time integration, atoms won't move (../verlet.cpp:60)
PPPM initialization ...
  using 12-bit tables for long-range coulomb (../kspace.cpp:340)
  G vector (1/distance) = 0.29588697
  grid = 45 45 200
  stencil order = 5
  estimated absolute RMS force accuracy = 0.00034195275
  estimated relative force accuracy = 1.0297805e-06
  using double precision KISS FFT
  3d grid and FFT values/proc = 446148 301725
  generated 45 of 45 mixed pair_coeff terms from arithmetic mixing rule
Per MPI rank memory allocation (min/avg/max) = 21.22 | 29.57 | 51.96 Mbytes
Step v_ftemp PotEng f_swp[1] f_swp[2] 
     648        40500   -539388.66            0            0 
     700        40500   -539392.46           52           44 
     800        40500   -539347.65          152          129 
     900        40500   -539347.09          252          218 
     972        40500   -539330.19          324          280 
Loop time of 69.6537 on 4 procs for 324 steps with 2925 atoms

Performance: 0.201 ns/day, 119.434 hours/ns, 4.652 timesteps/s
94.2% CPU use with 4 MPI tasks x no OpenMP threads

MPI task timing breakdown:
Section |  min time  |  avg time  |  max time  |%varavg| %total
---------------------------------------------------------------
Pair    | 0.28744    | 1.5691     | 2.5089     |  74.0 |  2.25
Bond    | 0.00044736 | 0.00093842 | 0.0023115  |   0.0 |  0.00
Kspace  | 17.449     | 18.39      | 19.671     |  21.6 | 26.40
Neigh   | 3.7996     | 3.8079     | 3.8211     |   0.4 |  5.47
Comm    | 0.12045    | 0.13636    | 0.14807    |   2.9 |  0.20
Output  | 7.1523e-05 | 0.00018342 | 0.00040839 |   0.0 |  0.00
Modify  | 45.739     | 45.743     | 45.748     |   0.1 | 65.67
Other   |            | 0.005959   |            |       |  0.01

Nlocal:         731.25 ave        1134 max         279 min
Histogram: 1 0 1 0 0 0 0 0 1 1
Nghost:           6900 ave        9526 max        4389 min
Histogram: 1 1 0 0 0 0 0 0 1 1
Neighs:         350442 ave      565947 max       59876 min
Histogram: 1 0 0 1 0 0 0 0 0 2

Total # of neighbors = 1401769
Ave neighs/atom = 479.23726
Ave special neighs/atom = 0.043076923
Neighbor list builds = 648
Dangerous builds = 0

  unfix swp
  thermo_style custom step temp pe

next temp
jump SELF minimize_temp

  variable ftemp equal v_temp

  # Electrostatic relaxation
  fix swp bFe atom/swap 1 1 ${rand} ${temp} ke no types 6 7
  fix swp bFe atom/swap 1 1 4574249 ${temp} ke no types 6 7
  fix swp bFe atom/swap 1 1 4574249 36450 ke no types 6 7
  thermo 100
  thermo_style custom step v_ftemp pe f_swp[1] f_swp[2]
  run ${nsteps}
  run 324
WARNING: No fixes with time integration, atoms won't move (../verlet.cpp:60)
PPPM initialization ...
  using 12-bit tables for long-range coulomb (../kspace.cpp:340)
  G vector (1/distance) = 0.29588697
  grid = 45 45 200
  stencil order = 5
  estimated absolute RMS force accuracy = 0.00034195275
  estimated relative force accuracy = 1.0297805e-06
  using double precision KISS FFT
  3d grid and FFT values/proc = 446148 301725
  generated 45 of 45 mixed pair_coeff terms from arithmetic mixing rule
Per MPI rank memory allocation (min/avg/max) = 21.22 | 29.57 | 51.96 Mbytes
Step v_ftemp PotEng f_swp[1] f_swp[2] 
     972        36450   -539330.19            0            0 
    1000        36450   -539372.61           28           21 
    1100        36450   -539375.55          128          105 
    1200        36450   -539368.34          228          196 
    1296        36450   -539379.32          324          277 
Loop time of 68.0355 on 4 procs for 324 steps with 2925 atoms

Performance: 0.206 ns/day, 116.659 hours/ns, 4.762 timesteps/s
94.2% CPU use with 4 MPI tasks x no OpenMP threads

MPI task timing breakdown:
Section |  min time  |  avg time  |  max time  |%varavg| %total
---------------------------------------------------------------
Pair    | 0.29651    | 1.6294     | 2.6166     |  75.5 |  2.39
Bond    | 0.00054188 | 0.001146   | 0.0025737  |   2.4 |  0.00
Kspace  | 16.927     | 17.915     | 19.248     |  22.8 | 26.33
Neigh   | 3.7728     | 3.7795     | 3.7894     |   0.3 |  5.56
Comm    | 0.10018    | 0.11242    | 0.12218    |   2.6 |  0.17
Output  | 7.331e-05  | 0.00019981 | 0.00049075 |   0.0 |  0.00
Modify  | 44.588     | 44.592     | 44.596     |   0.0 | 65.54
Other   |            | 0.00578    |            |       |  0.01

Nlocal:         731.25 ave        1134 max         279 min
Histogram: 1 0 1 0 0 0 0 0 1 1
Nghost:           6900 ave        9526 max        4389 min
Histogram: 1 1 0 0 0 0 0 0 1 1
Neighs:         350442 ave      565947 max       59876 min
Histogram: 1 0 0 1 0 0 0 0 0 2

Total # of neighbors = 1401769
Ave neighs/atom = 479.23726
Ave special neighs/atom = 0.043076923
Neighbor list builds = 648
Dangerous builds = 0

  unfix swp
  thermo_style custom step temp pe

next temp
jump SELF minimize_temp

  variable ftemp equal v_temp

  # Electrostatic relaxation
  fix swp bFe atom/swap 1 1 ${rand} ${temp} ke no types 6 7
  fix swp bFe atom/swap 1 1 5979850 ${temp} ke no types 6 7
  fix swp bFe atom/swap 1 1 5979850 32805 ke no types 6 7
  thermo 100
  thermo_style custom step v_ftemp pe f_swp[1] f_swp[2]
  run ${nsteps}
  run 324
WARNING: No fixes with time integration, atoms won't move (../verlet.cpp:60)
PPPM initialization ...
  using 12-bit tables for long-range coulomb (../kspace.cpp:340)
  G vector (1/distance) = 0.29588697
  grid = 45 45 200
  stencil order = 5
  estimated absolute RMS force accuracy = 0.00034195275
  estimated relative force accuracy = 1.0297805e-06
  using double precision KISS FFT
  3d grid and FFT values/proc = 446148 301725
  generated 45 of 45 mixed pair_coeff terms from arithmetic mixing rule
Per MPI rank memory allocation (min/avg/max) = 21.22 | 29.57 | 51.96 Mbytes
Step v_ftemp PotEng f_swp[1] f_swp[2] 
    1296        32805   -539379.32            0            0 
    1300        32805   -539360.85            4            2 
    1400        32805   -539333.78          104           83 
    1500        32805   -539313.26          204          164 
    1600        32805   -539371.07          304          251 
    1620        32805   -539314.37          324          268 
Loop time of 67.4852 on 4 procs for 324 steps with 2925 atoms

Performance: 0.207 ns/day, 115.715 hours/ns, 4.801 timesteps/s
94.3% CPU use with 4 MPI tasks x no OpenMP threads

MPI task timing breakdown:
Section |  min time  |  avg time  |  max time  |%varavg| %total
---------------------------------------------------------------
Pair    | 0.29398    | 1.6041     | 2.5627     |  74.6 |  2.38
Bond    | 0.00047304 | 0.0010856  | 0.0027939  |   3.0 |  0.00
Kspace  | 16.07      | 17.03      | 18.34      |  22.9 | 25.23
Neigh   | 3.8427     | 3.8514     | 3.8653     |   0.4 |  5.71
Comm    | 0.12995    | 0.14737    | 0.16039    |   3.1 |  0.22
Output  | 0.00010369 | 0.00026888 | 0.00061131 |   0.0 |  0.00
Modify  | 44.839     | 44.844     | 44.849     |   0.1 | 66.45
Other   |            | 0.007201   |            |       |  0.01

Nlocal:         731.25 ave        1134 max         279 min
Histogram: 1 0 1 0 0 0 0 0 1 1
Nghost:           6900 ave        9526 max        4389 min
Histogram: 1 1 0 0 0 0 0 0 1 1
Neighs:         350442 ave      565947 max       59876 min
Histogram: 1 0 0 1 0 0 0 0 0 2

Total # of neighbors = 1401769
Ave neighs/atom = 479.23726
Ave special neighs/atom = 0.043076923
Neighbor list builds = 648
Dangerous builds = 0

  unfix swp
  thermo_style custom step temp pe

next temp
jump SELF minimize_temp

  variable ftemp equal v_temp

  # Electrostatic relaxation
  fix swp bFe atom/swap 1 1 ${rand} ${temp} ke no types 6 7
  fix swp bFe atom/swap 1 1 2707118 ${temp} ke no types 6 7
  fix swp bFe atom/swap 1 1 2707118 29524 ke no types 6 7
  thermo 100
  thermo_style custom step v_ftemp pe f_swp[1] f_swp[2]
  run ${nsteps}
  run 324
WARNING: No fixes with time integration, atoms won't move (../verlet.cpp:60)
PPPM initialization ...
  using 12-bit tables for long-range coulomb (../kspace.cpp:340)
  G vector (1/distance) = 0.29588697
  grid = 45 45 200
  stencil order = 5
  estimated absolute RMS force accuracy = 0.00034195275
  estimated relative force accuracy = 1.0297805e-06
  using double precision KISS FFT
  3d grid and FFT values/proc = 446148 301725
  generated 45 of 45 mixed pair_coeff terms from arithmetic mixing rule
Per MPI rank memory allocation (min/avg/max) = 21.22 | 29.57 | 51.96 Mbytes
Step v_ftemp PotEng f_swp[1] f_swp[2] 
    1620        29524   -539314.37            0            0 
    1700        29524    -539276.3           80           66 
    1800        29524   -539321.85          180          149 
    1900        29524   -539340.08          280          226 
    1944        29524   -539368.83          324          260 
Loop time of 68.8108 on 4 procs for 324 steps with 2925 atoms

Performance: 0.203 ns/day, 117.988 hours/ns, 4.709 timesteps/s
94.5% CPU use with 4 MPI tasks x no OpenMP threads

MPI task timing breakdown:
Section |  min time  |  avg time  |  max time  |%varavg| %total
---------------------------------------------------------------
Pair    | 0.28553    | 1.5575     | 2.4934     |  73.5 |  2.26
Bond    | 0.00037827 | 0.0008722  | 0.0022506  |   0.0 |  0.00
Kspace  | 16.797     | 17.734     | 19.005     |  21.8 | 25.77
Neigh   | 3.818      | 3.8266     | 3.8405     |   0.4 |  5.56
Comm    | 0.13197    | 0.14949    | 0.16213    |   3.1 |  0.22
Output  | 8.4916e-05 | 0.00023906 | 0.00058528 |   0.0 |  0.00
Modify  | 45.531     | 45.536     | 45.541     |   0.1 | 66.18
Other   |            | 0.006513   |            |       |  0.01

Nlocal:         731.25 ave        1134 max         279 min
Histogram: 1 0 1 0 0 0 0 0 1 1
Nghost:           6900 ave        9526 max        4389 min
Histogram: 1 1 0 0 0 0 0 0 1 1
Neighs:         350442 ave      565947 max       59876 min
Histogram: 1 0 0 1 0 0 0 0 0 2

Total # of neighbors = 1401769
Ave neighs/atom = 479.23726
Ave special neighs/atom = 0.043076923
Neighbor list builds = 648
Dangerous builds = 0

  unfix swp
  thermo_style custom step temp pe

next temp
jump SELF minimize_temp

  variable ftemp equal v_temp

  # Electrostatic relaxation
  fix swp bFe atom/swap 1 1 ${rand} ${temp} ke no types 6 7
  fix swp bFe atom/swap 1 1 1165944 ${temp} ke no types 6 7
  fix swp bFe atom/swap 1 1 1165944 26571 ke no types 6 7
  thermo 100
  thermo_style custom step v_ftemp pe f_swp[1] f_swp[2]
  run ${nsteps}
  run 324
WARNING: No fixes with time integration, atoms won't move (../verlet.cpp:60)
PPPM initialization ...
  using 12-bit tables for long-range coulomb (../kspace.cpp:340)
  G vector (1/distance) = 0.29588697
  grid = 45 45 200
  stencil order = 5
  estimated absolute RMS force accuracy = 0.00034195275
  estimated relative force accuracy = 1.0297805e-06
  using double precision KISS FFT
  3d grid and FFT values/proc = 446148 301725
  generated 45 of 45 mixed pair_coeff terms from arithmetic mixing rule
Per MPI rank memory allocation (min/avg/max) = 21.22 | 29.57 | 51.96 Mbytes
Step v_ftemp PotEng f_swp[1] f_swp[2] 
    1944        26571   -539368.83            0            0 
    2000        26571   -539316.35           56           46 
    2100        26571    -539381.8          156          131 
    2200        26571   -539340.42          256          208 
    2268        26571   -539318.05          324          260 
Loop time of 67.9446 on 4 procs for 324 steps with 2925 atoms

Performance: 0.206 ns/day, 116.503 hours/ns, 4.769 timesteps/s
94.3% CPU use with 4 MPI tasks x no OpenMP threads

MPI task timing breakdown:
Section |  min time  |  avg time  |  max time  |%varavg| %total
---------------------------------------------------------------
Pair    | 0.28982    | 1.6202     | 2.5812     |  75.6 |  2.38
Bond    | 0.00046995 | 0.0010744  | 0.0023843  |   2.3 |  0.00
Kspace  | 16.749     | 17.711     | 19.041     |  22.9 | 26.07
Neigh   | 3.8209     | 3.83       | 3.8447     |   0.5 |  5.64
Comm    | 0.12685    | 0.14484    | 0.15732    |   3.2 |  0.21
Output  | 7.3254e-05 | 0.00019627 | 0.00047093 |   0.0 |  0.00
Modify  | 44.627     | 44.631     | 44.636     |   0.1 | 65.69
Other   |            | 0.006108   |            |       |  0.01

Nlocal:         731.25 ave        1134 max         279 min
Histogram: 1 0 1 0 0 0 0 0 1 1
Nghost:           6900 ave        9526 max        4389 min
Histogram: 1 1 0 0 0 0 0 0 1 1
Neighs:         350442 ave      565947 max       59876 min
Histogram: 1 0 0 1 0 0 0 0 0 2

Total # of neighbors = 1401769
Ave neighs/atom = 479.23726
Ave special neighs/atom = 0.043076923
Neighbor list builds = 648
Dangerous builds = 0

  unfix swp
  thermo_style custom step temp pe

next temp
jump SELF minimize_temp

  variable ftemp equal v_temp

  # Electrostatic relaxation
  fix swp bFe atom/swap 1 1 ${rand} ${temp} ke no types 6 7
  fix swp bFe atom/swap 1 1 3631288 ${temp} ke no types 6 7
  fix swp bFe atom/swap 1 1 3631288 23913 ke no types 6 7
  thermo 100
  thermo_style custom step v_ftemp pe f_swp[1] f_swp[2]
  run ${nsteps}
  run 324
WARNING: No fixes with time integration, atoms won't move (../verlet.cpp:60)
PPPM initialization ...
  using 12-bit tables for long-range coulomb (../kspace.cpp:340)
  G vector (1/distance) = 0.29588697
  grid = 45 45 200
  stencil order = 5
  estimated absolute RMS force accuracy = 0.00034195275
  estimated relative force accuracy = 1.0297805e-06
  using double precision KISS FFT
  3d grid and FFT values/proc = 446148 301725
  generated 45 of 45 mixed pair_coeff terms from arithmetic mixing rule
Per MPI rank memory allocation (min/avg/max) = 21.22 | 29.57 | 51.96 Mbytes
Step v_ftemp PotEng f_swp[1] f_swp[2] 
    2268        23913   -539318.05            0            0 
    2300        23913   -539331.63           32           20 
    2400        23913   -539316.81          132          104 
    2500        23913   -539396.49          232          191 
    2592        23913    -539382.2          324          268 
Loop time of 66.8911 on 4 procs for 324 steps with 2925 atoms

Performance: 0.209 ns/day, 114.697 hours/ns, 4.844 timesteps/s
94.3% CPU use with 4 MPI tasks x no OpenMP threads

MPI task timing breakdown:
Section |  min time  |  avg time  |  max time  |%varavg| %total
---------------------------------------------------------------
Pair    | 0.29974    | 1.6072     | 2.5608     |  74.4 |  2.40
Bond    | 0.00044683 | 0.0010902  | 0.0028307  |   3.0 |  0.00
Kspace  | 16.128     | 17.083     | 18.39      |  22.8 | 25.54
Neigh   | 3.8972     | 3.9058     | 3.9196     |   0.4 |  5.84
Comm    | 0.12963    | 0.14684    | 0.15975    |   3.1 |  0.22
Output  | 8.1734e-05 | 0.00020419 | 0.00047254 |   0.0 |  0.00
Modify  | 44.135     | 44.14      | 44.145     |   0.1 | 65.99
Other   |            | 0.007497   |            |       |  0.01

Nlocal:         731.25 ave        1134 max         279 min
Histogram: 1 0 1 0 0 0 0 0 1 1
Nghost:           6900 ave        9526 max        4389 min
Histogram: 1 1 0 0 0 0 0 0 1 1
Neighs:         350442 ave      565947 max       59876 min
Histogram: 1 0 0 1 0 0 0 0 0 2

Total # of neighbors = 1401769
Ave neighs/atom = 479.23726
Ave special neighs/atom = 0.043076923
Neighbor list builds = 648
Dangerous builds = 0

  unfix swp
  thermo_style custom step temp pe

next temp
jump SELF minimize_temp

  variable ftemp equal v_temp

  # Electrostatic relaxation
  fix swp bFe atom/swap 1 1 ${rand} ${temp} ke no types 6 7
  fix swp bFe atom/swap 1 1 7952271 ${temp} ke no types 6 7
  fix swp bFe atom/swap 1 1 7952271 21521 ke no types 6 7
  thermo 100
  thermo_style custom step v_ftemp pe f_swp[1] f_swp[2]
  run ${nsteps}
  run 324
WARNING: No fixes with time integration, atoms won't move (../verlet.cpp:60)
PPPM initialization ...
  using 12-bit tables for long-range coulomb (../kspace.cpp:340)
  G vector (1/distance) = 0.29588697
  grid = 45 45 200
  stencil order = 5
  estimated absolute RMS force accuracy = 0.00034195275
  estimated relative force accuracy = 1.0297805e-06
  using double precision KISS FFT
  3d grid and FFT values/proc = 446148 301725
  generated 45 of 45 mixed pair_coeff terms from arithmetic mixing rule
Per MPI rank memory allocation (min/avg/max) = 21.22 | 29.57 | 51.96 Mbytes
Step v_ftemp PotEng f_swp[1] f_swp[2] 
    2592        21521    -539382.2            0            0 
    2600        21521   -539332.66            8            6 
    2700        21521   -539343.06          108           89 
    2800        21521   -539377.54          208          161 
    2900        21521   -539357.05          308          237 
    2916        21521   -539327.53          324          251 
Loop time of 68.3062 on 4 procs for 324 steps with 2925 atoms

Performance: 0.205 ns/day, 117.123 hours/ns, 4.743 timesteps/s
93.8% CPU use with 4 MPI tasks x no OpenMP threads

MPI task timing breakdown:
Section |  min time  |  avg time  |  max time  |%varavg| %total
---------------------------------------------------------------
Pair    | 0.29113    | 1.6022     | 2.5656     |  74.7 |  2.35
Bond    | 0.00047711 | 0.0010243  | 0.0024951  |   2.7 |  0.00
Kspace  | 17.109     | 18.073     | 19.384     |  22.2 | 26.46
Neigh   | 3.8051     | 3.8139     | 3.822      |   0.3 |  5.58
Comm    | 0.15191    | 0.16214    | 0.17462    |   2.4 |  0.24
Output  | 9.8984e-05 | 0.00025213 | 0.00059314 |   0.0 |  0.00
Modify  | 44.643     | 44.647     | 44.653     |   0.1 | 65.36
Other   |            | 0.006132   |            |       |  0.01

Nlocal:         731.25 ave        1134 max         279 min
Histogram: 1 0 1 0 0 0 0 0 1 1
Nghost:           6900 ave        9526 max        4389 min
Histogram: 1 1 0 0 0 0 0 0 1 1
Neighs:         350442 ave      565947 max       59876 min
Histogram: 1 0 0 1 0 0 0 0 0 2

Total # of neighbors = 1401769
Ave neighs/atom = 479.23726
Ave special neighs/atom = 0.043076923
Neighbor list builds = 648
Dangerous builds = 0

  unfix swp
  thermo_style custom step temp pe

next temp
jump SELF minimize_temp

  variable ftemp equal v_temp

  # Electrostatic relaxation
  fix swp bFe atom/swap 1 1 ${rand} ${temp} ke no types 6 7
  fix swp bFe atom/swap 1 1 185888 ${temp} ke no types 6 7
  fix swp bFe atom/swap 1 1 185888 19368 ke no types 6 7
  thermo 100
  thermo_style custom step v_ftemp pe f_swp[1] f_swp[2]
  run ${nsteps}
  run 324
WARNING: No fixes with time integration, atoms won't move (../verlet.cpp:60)
PPPM initialization ...
  using 12-bit tables for long-range coulomb (../kspace.cpp:340)
  G vector (1/distance) = 0.29588697
  grid = 45 45 200
  stencil order = 5
  estimated absolute RMS force accuracy = 0.00034195275
  estimated relative force accuracy = 1.0297805e-06
  using double precision KISS FFT
  3d grid and FFT values/proc = 446148 301725
  generated 45 of 45 mixed pair_coeff terms from arithmetic mixing rule
Per MPI rank memory allocation (min/avg/max) = 21.22 | 29.57 | 51.96 Mbytes
Step v_ftemp PotEng f_swp[1] f_swp[2] 
    2916        19368   -539327.53            0            0 
    3000        19368   -539378.58           84           61 
    3100        19368   -539409.11          184          137 
    3200        19368   -539292.09          284          210 
    3240        19368    -539354.3          324          244 
Loop time of 68.3 on 4 procs for 324 steps with 2925 atoms

Performance: 0.205 ns/day, 117.113 hours/ns, 4.744 timesteps/s
93.6% CPU use with 4 MPI tasks x no OpenMP threads

MPI task timing breakdown:
Section |  min time  |  avg time  |  max time  |%varavg| %total
---------------------------------------------------------------
Pair    | 0.29011    | 1.5969     | 2.5443     |  74.7 |  2.34
Bond    | 0.0004142  | 0.001056   | 0.0025656  |   2.7 |  0.00
Kspace  | 17.275     | 18.223     | 19.53      |  22.1 | 26.68
Neigh   | 3.7968     | 3.804      | 3.8152     |   0.4 |  5.57
Comm    | 0.10953    | 0.12309    | 0.13415    |   2.8 |  0.18
Output  | 7.4363e-05 | 0.00019493 | 0.0004436  |   0.0 |  0.00
Modify  | 44.542     | 44.546     | 44.551     |   0.1 | 65.22
Other   |            | 0.005605   |            |       |  0.01

Nlocal:         731.25 ave        1134 max         279 min
Histogram: 1 0 1 0 0 0 0 0 1 1
Nghost:           6900 ave        9526 max        4389 min
Histogram: 1 1 0 0 0 0 0 0 1 1
Neighs:         350442 ave      565947 max       59876 min
Histogram: 1 0 0 1 0 0 0 0 0 2

Total # of neighbors = 1401769
Ave neighs/atom = 479.23726
Ave special neighs/atom = 0.043076923
Neighbor list builds = 648
Dangerous builds = 0

  unfix swp
  thermo_style custom step temp pe

next temp
jump SELF minimize_temp

  variable ftemp equal v_temp

  # Electrostatic relaxation
  fix swp bFe atom/swap 1 1 ${rand} ${temp} ke no types 6 7
  fix swp bFe atom/swap 1 1 7935996 ${temp} ke no types 6 7
  fix swp bFe atom/swap 1 1 7935996 17431 ke no types 6 7
  thermo 100
  thermo_style custom step v_ftemp pe f_swp[1] f_swp[2]
  run ${nsteps}
  run 324
WARNING: No fixes with time integration, atoms won't move (../verlet.cpp:60)
PPPM initialization ...
  using 12-bit tables for long-range coulomb (../kspace.cpp:340)
  G vector (1/distance) = 0.29588697
  grid = 45 45 200
  stencil order = 5
  estimated absolute RMS force accuracy = 0.00034195275
  estimated relative force accuracy = 1.0297805e-06
  using double precision KISS FFT
  3d grid and FFT values/proc = 446148 301725
  generated 45 of 45 mixed pair_coeff terms from arithmetic mixing rule
Per MPI rank memory allocation (min/avg/max) = 21.22 | 29.57 | 51.96 Mbytes
Step v_ftemp PotEng f_swp[1] f_swp[2] 
    3240        17431    -539354.3            0            0 
    3300        17431   -539351.49           60           44 
    3400        17431   -539393.34          160          114 
    3500        17431   -539313.99          260          191 
    3564        17431   -539390.87          324          235 
Loop time of 68.0675 on 4 procs for 324 steps with 2925 atoms

Performance: 0.206 ns/day, 116.714 hours/ns, 4.760 timesteps/s
94.3% CPU use with 4 MPI tasks x no OpenMP threads

MPI task timing breakdown:
Section |  min time  |  avg time  |  max time  |%varavg| %total
---------------------------------------------------------------
Pair    | 0.29187    | 1.6172     | 2.5952     |  75.6 |  2.38
Bond    | 0.00052828 | 0.0010766  | 0.0024926  |   2.5 |  0.00
Kspace  | 17.036     | 18.015     | 19.34      |  22.7 | 26.47
Neigh   | 3.7865     | 3.7931     | 3.8038     |   0.3 |  5.57
Comm    | 0.10659    | 0.11867    | 0.12858    |   2.6 |  0.17
Output  | 7.3655e-05 | 0.00019185 | 0.00046259 |   0.0 |  0.00
Modify  | 44.513     | 44.517     | 44.522     |   0.1 | 65.40
Other   |            | 0.005548   |            |       |  0.01

Nlocal:         731.25 ave        1134 max         279 min
Histogram: 1 0 1 0 0 0 0 0 1 1
Nghost:           6900 ave        9526 max        4389 min
Histogram: 1 1 0 0 0 0 0 0 1 1
Neighs:         350442 ave      565947 max       59876 min
Histogram: 1 0 0 1 0 0 0 0 0 2

Total # of neighbors = 1401769
Ave neighs/atom = 479.23726
Ave special neighs/atom = 0.043076923
Neighbor list builds = 648
Dangerous builds = 0

  unfix swp
  thermo_style custom step temp pe

next temp
jump SELF minimize_temp

  variable ftemp equal v_temp

  # Electrostatic relaxation
  fix swp bFe atom/swap 1 1 ${rand} ${temp} ke no types 6 7
  fix swp bFe atom/swap 1 1 473855 ${temp} ke no types 6 7
  fix swp bFe atom/swap 1 1 473855 15687 ke no types 6 7
  thermo 100
  thermo_style custom step v_ftemp pe f_swp[1] f_swp[2]
  run ${nsteps}
  run 324
WARNING: No fixes with time integration, atoms won't move (../verlet.cpp:60)
PPPM initialization ...
  using 12-bit tables for long-range coulomb (../kspace.cpp:340)
  G vector (1/distance) = 0.29588697
  grid = 45 45 200
  stencil order = 5
  estimated absolute RMS force accuracy = 0.00034195275
  estimated relative force accuracy = 1.0297805e-06
  using double precision KISS FFT
  3d grid and FFT values/proc = 446148 301725
  generated 45 of 45 mixed pair_coeff terms from arithmetic mixing rule
Per MPI rank memory allocation (min/avg/max) = 21.22 | 29.57 | 51.96 Mbytes
Step v_ftemp PotEng f_swp[1] f_swp[2] 
    3564        15687   -539390.87            0            0 
    3600        15687   -539388.16           36           21 
    3700        15687   -539327.32          136           94 
    3800        15687   -539390.94          236          167 
    3888        15687   -539386.66          324          226 
Loop time of 66.977 on 4 procs for 324 steps with 2925 atoms

Performance: 0.209 ns/day, 114.844 hours/ns, 4.837 timesteps/s
94.0% CPU use with 4 MPI tasks x no OpenMP threads

MPI task timing breakdown:
Section |  min time  |  avg time  |  max time  |%varavg| %total
---------------------------------------------------------------
Pair    | 0.30276    | 1.638      | 2.5964     |  75.3 |  2.45
Bond    | 0.00046661 | 0.0012296  | 0.0032826  |   3.4 |  0.00
Kspace  | 16.398     | 17.357     | 18.693     |  23.1 | 25.92
Neigh   | 3.8829     | 3.8903     | 3.9021     |   0.4 |  5.81
Comm    | 0.11425    | 0.12852    | 0.13917    |   2.8 |  0.19
Output  | 7.559e-05  | 0.00020345 | 0.00049672 |   0.0 |  0.00
Modify  | 43.95      | 43.954     | 43.958     |   0.1 | 65.63
Other   |            | 0.007617   |            |       |  0.01

Nlocal:         731.25 ave        1134 max         279 min
Histogram: 1 0 1 0 0 0 0 0 1 1
Nghost:           6900 ave        9526 max        4389 min
Histogram: 1 1 0 0 0 0 0 0 1 1
Neighs:         350442 ave      565947 max       59876 min
Histogram: 1 0 0 1 0 0 0 0 0 2

Total # of neighbors = 1401769
Ave neighs/atom = 479.23726
Ave special neighs/atom = 0.043076923
Neighbor list builds = 648
Dangerous builds = 0

  unfix swp
  thermo_style custom step temp pe

next temp
jump SELF minimize_temp

  variable ftemp equal v_temp

  # Electrostatic relaxation
  fix swp bFe atom/swap 1 1 ${rand} ${temp} ke no types 6 7
  fix swp bFe atom/swap 1 1 7716369 ${temp} ke no types 6 7
  fix swp bFe atom/swap 1 1 7716369 14118 ke no types 6 7
  thermo 100
  thermo_style custom step v_ftemp pe f_swp[1] f_swp[2]
  run ${nsteps}
  run 324
WARNING: No fixes with time integration, atoms won't move (../verlet.cpp:60)
PPPM initialization ...
  using 12-bit tables for long-range coulomb (../kspace.cpp:340)
  G vector (1/distance) = 0.29588697
  grid = 45 45 200
  stencil order = 5
  estimated absolute RMS force accuracy = 0.00034195275
  estimated relative force accuracy = 1.0297805e-06
  using double precision KISS FFT
  3d grid and FFT values/proc = 446148 301725
  generated 45 of 45 mixed pair_coeff terms from arithmetic mixing rule
Per MPI rank memory allocation (min/avg/max) = 21.22 | 29.57 | 51.96 Mbytes
Step v_ftemp PotEng f_swp[1] f_swp[2] 
    3888        14118   -539386.66            0            0 
    3900        14118   -539305.23           12           10 
    4000        14118   -539358.27          112           86 
    4100        14118   -539335.57          212          138 
    4200        14118   -539349.23          312          211 
    4212        14118   -539326.59          324          219 
Loop time of 68.1185 on 4 procs for 324 steps with 2925 atoms

Performance: 0.205 ns/day, 116.801 hours/ns, 4.756 timesteps/s
94.2% CPU use with 4 MPI tasks x no OpenMP threads

MPI task timing breakdown:
Section |  min time  |  avg time  |  max time  |%varavg| %total
---------------------------------------------------------------
Pair    | 0.28954    | 1.5989     | 2.5648     |  74.8 |  2.35
Bond    | 0.00047214 | 0.0010385  | 0.0024956  |   2.6 |  0.00
Kspace  | 16.825     | 17.791     | 19.101     |  22.4 | 26.12
Neigh   | 3.8541     | 3.8625     | 3.8768     |   0.4 |  5.67
Comm    | 0.12521    | 0.14193    | 0.15359    |   3.0 |  0.21
Output  | 9.0762e-05 | 0.00024035 | 0.00055497 |   0.0 |  0.00
Modify  | 44.713     | 44.717     | 44.721     |   0.1 | 65.65
Other   |            | 0.005949   |            |       |  0.01

Nlocal:         731.25 ave        1134 max         279 min
Histogram: 1 0 1 0 0 0 0 0 1 1
Nghost:           6900 ave        9526 max        4389 min
Histogram: 1 1 0 0 0 0 0 0 1 1
Neighs:         350442 ave      565947 max       59876 min
Histogram: 1 0 0 1 0 0 0 0 0 2

Total # of neighbors = 1401769
Ave neighs/atom = 479.23726
Ave special neighs/atom = 0.043076923
Neighbor list builds = 648
Dangerous builds = 0

  unfix swp
  thermo_style custom step temp pe

next temp
jump SELF minimize_temp

  variable ftemp equal v_temp

  # Electrostatic relaxation
  fix swp bFe atom/swap 1 1 ${rand} ${temp} ke no types 6 7
  fix swp bFe atom/swap 1 1 8487327 ${temp} ke no types 6 7
  fix swp bFe atom/swap 1 1 8487327 12706 ke no types 6 7
  thermo 100
  thermo_style custom step v_ftemp pe f_swp[1] f_swp[2]
  run ${nsteps}
  run 324
WARNING: No fixes with time integration, atoms won't move (../verlet.cpp:60)
PPPM initialization ...
  using 12-bit tables for long-range coulomb (../kspace.cpp:340)
  G vector (1/distance) = 0.29588697
  grid = 45 45 200
  stencil order = 5
  estimated absolute RMS force accuracy = 0.00034195275
  estimated relative force accuracy = 1.0297805e-06
  using double precision KISS FFT
  3d grid and FFT values/proc = 446148 301725
  generated 45 of 45 mixed pair_coeff terms from arithmetic mixing rule
Per MPI rank memory allocation (min/avg/max) = 21.22 | 29.57 | 51.96 Mbytes
Step v_ftemp PotEng f_swp[1] f_swp[2] 
    4212        12706   -539326.59            0            0 
    4300        12706   -539397.98           88           64 
    4400        12706    -539379.1          188          129 
    4500        12706   -539392.15          288          188 
    4536        12706   -539353.95          324          215 
Loop time of 77.4716 on 4 procs for 324 steps with 2925 atoms

Performance: 0.181 ns/day, 132.839 hours/ns, 4.182 timesteps/s
88.3% CPU use with 4 MPI tasks x no OpenMP threads

MPI task timing breakdown:
Section |  min time  |  avg time  |  max time  |%varavg| %total
---------------------------------------------------------------
Pair    | 0.32456    | 1.7674     | 2.8441     |  78.9 |  2.28
Bond    | 0.00066251 | 0.0014306  | 0.0034626  |   3.1 |  0.00
Kspace  | 19.478     | 20.556     | 21.995     |  23.1 | 26.53
Neigh   | 4.4053     | 4.4141     | 4.4285     |   0.4 |  5.70
Comm    | 0.25538    | 0.30145    | 0.33987    |   6.2 |  0.39
Output  | 0.00012096 | 0.00032148 | 0.00074558 |   0.0 |  0.00
Modify  | 50.388     | 50.423     | 50.475     |   0.5 | 65.09
Other   |            | 0.008297   |            |       |  0.01

Nlocal:         731.25 ave        1134 max         279 min
Histogram: 1 0 1 0 0 0 0 0 1 1
Nghost:           6900 ave        9526 max        4389 min
Histogram: 1 1 0 0 0 0 0 0 1 1
Neighs:         350442 ave      565947 max       59876 min
Histogram: 1 0 0 1 0 0 0 0 0 2

Total # of neighbors = 1401769
Ave neighs/atom = 479.23726
Ave special neighs/atom = 0.043076923
Neighbor list builds = 648
Dangerous builds = 0

  unfix swp
  thermo_style custom step temp pe

next temp
jump SELF minimize_temp

  variable ftemp equal v_temp

  # Electrostatic relaxation
  fix swp bFe atom/swap 1 1 ${rand} ${temp} ke no types 6 7
  fix swp bFe atom/swap 1 1 8505477 ${temp} ke no types 6 7
  fix swp bFe atom/swap 1 1 8505477 11435 ke no types 6 7
  thermo 100
  thermo_style custom step v_ftemp pe f_swp[1] f_swp[2]
  run ${nsteps}
  run 324
WARNING: No fixes with time integration, atoms won't move (../verlet.cpp:60)
PPPM initialization ...
  using 12-bit tables for long-range coulomb (../kspace.cpp:340)
  G vector (1/distance) = 0.29588697
  grid = 45 45 200
  stencil order = 5
  estimated absolute RMS force accuracy = 0.00034195275
  estimated relative force accuracy = 1.0297805e-06
  using double precision KISS FFT
  3d grid and FFT values/proc = 446148 301725
  generated 45 of 45 mixed pair_coeff terms from arithmetic mixing rule
Per MPI rank memory allocation (min/avg/max) = 21.22 | 29.57 | 51.96 Mbytes
Step v_ftemp PotEng f_swp[1] f_swp[2] 
    4536        11435   -539353.95            0            0 
    4600        11435   -539349.26           64           43 
    4700        11435   -539404.99          164          108 
    4800        11435      -539384          264          165 
    4860        11435   -539367.71          324          200 
Loop time of 72.0543 on 4 procs for 324 steps with 2925 atoms

Performance: 0.194 ns/day, 123.550 hours/ns, 4.497 timesteps/s
91.0% CPU use with 4 MPI tasks x no OpenMP threads

MPI task timing breakdown:
Section |  min time  |  avg time  |  max time  |%varavg| %total
---------------------------------------------------------------
Pair    | 0.31678    | 1.7327     | 2.7782     |  77.6 |  2.40
Bond    | 0.00061706 | 0.0014257  | 0.0034201  |   3.1 |  0.00
Kspace  | 17.628     | 18.669     | 20.088     |  23.7 | 25.91
Neigh   | 4.1348     | 4.1439     | 4.1574     |   0.4 |  5.75
Comm    | 0.14256    | 0.15347    | 0.16956    |   2.7 |  0.21
Output  | 7.8737e-05 | 0.00017402 | 0.00034709 |   0.0 |  0.00
Modify  | 47.342     | 47.346     | 47.351     |   0.1 | 65.71
Other   |            | 0.007765   |            |       |  0.01

Nlocal:         731.25 ave        1134 max         279 min
Histogram: 1 0 1 0 0 0 0 0 1 1
Nghost:           6900 ave        9526 max        4389 min
Histogram: 1 1 0 0 0 0 0 0 1 1
Neighs:         350442 ave      565947 max       59876 min
Histogram: 1 0 0 1 0 0 0 0 0 2

Total # of neighbors = 1401769
Ave neighs/atom = 479.23726
Ave special neighs/atom = 0.043076923
Neighbor list builds = 648
Dangerous builds = 0

  unfix swp
  thermo_style custom step temp pe

next temp
jump SELF minimize_temp

  variable ftemp equal v_temp

  # Electrostatic relaxation
  fix swp bFe atom/swap 1 1 ${rand} ${temp} ke no types 6 7
  fix swp bFe atom/swap 1 1 980195 ${temp} ke no types 6 7
  fix swp bFe atom/swap 1 1 980195 10291 ke no types 6 7
  thermo 100
  thermo_style custom step v_ftemp pe f_swp[1] f_swp[2]
  run ${nsteps}
  run 324
WARNING: No fixes with time integration, atoms won't move (../verlet.cpp:60)
PPPM initialization ...
  using 12-bit tables for long-range coulomb (../kspace.cpp:340)
  G vector (1/distance) = 0.29588697
  grid = 45 45 200
  stencil order = 5
  estimated absolute RMS force accuracy = 0.00034195275
  estimated relative force accuracy = 1.0297805e-06
  using double precision KISS FFT
  3d grid and FFT values/proc = 446148 301725
  generated 45 of 45 mixed pair_coeff terms from arithmetic mixing rule
Per MPI rank memory allocation (min/avg/max) = 21.22 | 29.57 | 51.96 Mbytes
Step v_ftemp PotEng f_swp[1] f_swp[2] 
    4860        10291   -539367.71            0            0 
    4900        10291   -539399.53           40           24 
    5000        10291   -539351.57          140           91 
    5100        10291   -539302.59          240          156 
    5184        10291   -539381.54          324          208 
Loop time of 72.7327 on 4 procs for 324 steps with 2925 atoms

Performance: 0.192 ns/day, 124.713 hours/ns, 4.455 timesteps/s
90.8% CPU use with 4 MPI tasks x no OpenMP threads

MPI task timing breakdown:
Section |  min time  |  avg time  |  max time  |%varavg| %total
---------------------------------------------------------------
Pair    | 0.31468    | 1.7033     | 2.7248     |  77.4 |  2.34
Bond    | 0.00058746 | 0.0013306  | 0.0032529  |   3.0 |  0.00
Kspace  | 17.731     | 18.737     | 20.142     |  23.4 | 25.76
Neigh   | 4.2509     | 4.2648     | 4.2926     |   0.8 |  5.86
Comm    | 0.154      | 0.16972    | 0.19617    |   4.1 |  0.23
Output  | 0.00012166 | 0.00029437 | 0.00063781 |   0.0 |  0.00
Modify  | 47.842     | 47.849     | 47.858     |   0.1 | 65.79
Other   |            | 0.00744    |            |       |  0.01

Nlocal:         731.25 ave        1134 max         279 min
Histogram: 1 0 1 0 0 0 0 0 1 1
Nghost:           6900 ave        9526 max        4389 min
Histogram: 1 1 0 0 0 0 0 0 1 1
Neighs:         350442 ave      565947 max       59876 min
Histogram: 1 0 0 1 0 0 0 0 0 2

Total # of neighbors = 1401769
Ave neighs/atom = 479.23726
Ave special neighs/atom = 0.043076923
Neighbor list builds = 648
Dangerous builds = 0

  unfix swp
  thermo_style custom step temp pe

next temp
jump SELF minimize_temp

  variable ftemp equal v_temp

  # Electrostatic relaxation
  fix swp bFe atom/swap 1 1 ${rand} ${temp} ke no types 6 7
  fix swp bFe atom/swap 1 1 2065900 ${temp} ke no types 6 7
  fix swp bFe atom/swap 1 1 2065900 9261 ke no types 6 7
  thermo 100
  thermo_style custom step v_ftemp pe f_swp[1] f_swp[2]
  run ${nsteps}
  run 324
WARNING: No fixes with time integration, atoms won't move (../verlet.cpp:60)
PPPM initialization ...
  using 12-bit tables for long-range coulomb (../kspace.cpp:340)
  G vector (1/distance) = 0.29588697
  grid = 45 45 200
  stencil order = 5
  estimated absolute RMS force accuracy = 0.00034195275
  estimated relative force accuracy = 1.0297805e-06
  using double precision KISS FFT
  3d grid and FFT values/proc = 446148 301725
  generated 45 of 45 mixed pair_coeff terms from arithmetic mixing rule
Per MPI rank memory allocation (min/avg/max) = 21.22 | 29.57 | 51.96 Mbytes
Step v_ftemp PotEng f_swp[1] f_swp[2] 
    5184         9261   -539381.54            0            0 
    5200         9261   -539401.93           16           10 
    5300         9261    -539385.8          116           67 
    5400         9261   -539380.36          216          121 
    5500         9261   -539354.83          316          166 
    5508         9261   -539375.35          324          171 
Loop time of 73.6996 on 4 procs for 324 steps with 2925 atoms

Performance: 0.190 ns/day, 126.371 hours/ns, 4.396 timesteps/s
90.2% CPU use with 4 MPI tasks x no OpenMP threads

MPI task timing breakdown:
Section |  min time  |  avg time  |  max time  |%varavg| %total
---------------------------------------------------------------
Pair    | 0.30972    | 1.7021     | 2.7315     |  76.1 |  2.31
Bond    | 0.00061371 | 0.0012911  | 0.0031676  |   3.0 |  0.00
Kspace  | 17.466     | 18.497     | 19.887     |  23.0 | 25.10
Neigh   | 4.2042     | 4.2145     | 4.2318     |   0.5 |  5.72
Comm    | 0.17967    | 0.19519    | 0.20977    |   2.9 |  0.26
Output  | 0.00011644 | 0.0007727  | 0.0025867  |   0.0 |  0.00
Modify  | 49.074     | 49.081     | 49.094     |   0.1 | 66.60
Other   |            | 0.007834   |            |       |  0.01

Nlocal:         731.25 ave        1134 max         279 min
Histogram: 1 0 1 0 0 0 0 0 1 1
Nghost:           6900 ave        9526 max        4389 min
Histogram: 1 1 0 0 0 0 0 0 1 1
Neighs:         350442 ave      565947 max       59876 min
Histogram: 1 0 0 1 0 0 0 0 0 2

Total # of neighbors = 1401769
Ave neighs/atom = 479.23726
Ave special neighs/atom = 0.043076923
Neighbor list builds = 648
Dangerous builds = 0

  unfix swp
  thermo_style custom step temp pe

next temp
jump SELF minimize_temp

  variable ftemp equal v_temp

  # Electrostatic relaxation
  fix swp bFe atom/swap 1 1 ${rand} ${temp} ke no types 6 7
  fix swp bFe atom/swap 1 1 5185835 ${temp} ke no types 6 7
  fix swp bFe atom/swap 1 1 5185835 8334 ke no types 6 7
  thermo 100
  thermo_style custom step v_ftemp pe f_swp[1] f_swp[2]
  run ${nsteps}
  run 324
WARNING: No fixes with time integration, atoms won't move (../verlet.cpp:60)
PPPM initialization ...
  using 12-bit tables for long-range coulomb (../kspace.cpp:340)
  G vector (1/distance) = 0.29588697
  grid = 45 45 200
  stencil order = 5
  estimated absolute RMS force accuracy = 0.00034195275
  estimated relative force accuracy = 1.0297805e-06
  using double precision KISS FFT
  3d grid and FFT values/proc = 446148 301725
  generated 45 of 45 mixed pair_coeff terms from arithmetic mixing rule
Per MPI rank memory allocation (min/avg/max) = 21.22 | 29.57 | 51.96 Mbytes
Step v_ftemp PotEng f_swp[1] f_swp[2] 
    5508         8334   -539375.35            0            0 
    5600         8334   -539419.71           92           54 
    5700         8334   -539397.97          192           93 
    5800         8334   -539402.54          292          151 
    5832         8334    -539390.7          324          169 
Loop time of 68.2905 on 4 procs for 324 steps with 2925 atoms

Performance: 0.205 ns/day, 117.096 hours/ns, 4.744 timesteps/s
93.8% CPU use with 4 MPI tasks x no OpenMP threads

MPI task timing breakdown:
Section |  min time  |  avg time  |  max time  |%varavg| %total
---------------------------------------------------------------
Pair    | 0.2888     | 1.5981     | 2.5658     |  75.0 |  2.34
Bond    | 0.00040569 | 0.00099044 | 0.00262    |   0.0 |  0.00
Kspace  | 16.376     | 17.345     | 18.654     |  22.8 | 25.40
Neigh   | 3.8578     | 3.8664     | 3.8809     |   0.5 |  5.66
Comm    | 0.13087    | 0.14921    | 0.162      |   3.2 |  0.22
Output  | 8.4371e-05 | 0.0002138  | 0.0004971  |   0.0 |  0.00
Modify  | 45.319     | 45.324     | 45.329     |   0.1 | 66.37
Other   |            | 0.006856   |            |       |  0.01

Nlocal:         731.25 ave        1134 max         279 min
Histogram: 1 0 1 0 0 0 0 0 1 1
Nghost:           6900 ave        9526 max        4389 min
Histogram: 1 1 0 0 0 0 0 0 1 1
Neighs:         350442 ave      565947 max       59876 min
Histogram: 1 0 0 1 0 0 0 0 0 2

Total # of neighbors = 1401769
Ave neighs/atom = 479.23726
Ave special neighs/atom = 0.043076923
Neighbor list builds = 648
Dangerous builds = 0

  unfix swp
  thermo_style custom step temp pe

next temp
jump SELF minimize_temp

  variable ftemp equal v_temp

  # Electrostatic relaxation
  fix swp bFe atom/swap 1 1 ${rand} ${temp} ke no types 6 7
  fix swp bFe atom/swap 1 1 3359353 ${temp} ke no types 6 7
  fix swp bFe atom/swap 1 1 3359353 7500 ke no types 6 7
  thermo 100
  thermo_style custom step v_ftemp pe f_swp[1] f_swp[2]
  run ${nsteps}
  run 324
WARNING: No fixes with time integration, atoms won't move (../verlet.cpp:60)
PPPM initialization ...
  using 12-bit tables for long-range coulomb (../kspace.cpp:340)
  G vector (1/distance) = 0.29588697
  grid = 45 45 200
  stencil order = 5
  estimated absolute RMS force accuracy = 0.00034195275
  estimated relative force accuracy = 1.0297805e-06
  using double precision KISS FFT
  3d grid and FFT values/proc = 446148 301725
  generated 45 of 45 mixed pair_coeff terms from arithmetic mixing rule
Per MPI rank memory allocation (min/avg/max) = 21.22 | 29.57 | 51.96 Mbytes
Step v_ftemp PotEng f_swp[1] f_swp[2] 
    5832         7500    -539390.7            0            0 
    5900         7500   -539406.98           68           36 
    6000         7500   -539362.28          168           88 
    6100         7500   -539385.77          268          138 
    6156         7500   -539349.81          324          163 
Loop time of 71.524 on 4 procs for 324 steps with 2925 atoms

Performance: 0.196 ns/day, 122.641 hours/ns, 4.530 timesteps/s
91.9% CPU use with 4 MPI tasks x no OpenMP threads

MPI task timing breakdown:
Section |  min time  |  avg time  |  max time  |%varavg| %total
---------------------------------------------------------------
Pair    | 0.30055    | 1.6797     | 2.6818     |  76.6 |  2.35
Bond    | 0.00057567 | 0.0013341  | 0.0032463  |   3.0 |  0.00
Kspace  | 17.249     | 18.252     | 19.63      |  23.2 | 25.52
Neigh   | 4.0537     | 4.062      | 4.0753     |   0.4 |  5.68
Comm    | 0.13512    | 0.15296    | 0.16699    |   3.3 |  0.21
Output  | 7.5541e-05 | 0.0002095  | 0.00049737 |   0.0 |  0.00
Modify  | 47.363     | 47.368     | 47.376     |   0.1 | 66.23
Other   |            | 0.007262   |            |       |  0.01

Nlocal:         731.25 ave        1134 max         279 min
Histogram: 1 0 1 0 0 0 0 0 1 1
Nghost:           6900 ave        9526 max        4389 min
Histogram: 1 1 0 0 0 0 0 0 1 1
Neighs:         350442 ave      565947 max       59876 min
Histogram: 1 0 0 1 0 0 0 0 0 2

Total # of neighbors = 1401769
Ave neighs/atom = 479.23726
Ave special neighs/atom = 0.043076923
Neighbor list builds = 648
Dangerous builds = 0

  unfix swp
  thermo_style custom step temp pe

next temp
jump SELF minimize_temp

  variable ftemp equal v_temp

  # Electrostatic relaxation
  fix swp bFe atom/swap 1 1 ${rand} ${temp} ke no types 6 7
  fix swp bFe atom/swap 1 1 6806545 ${temp} ke no types 6 7
  fix swp bFe atom/swap 1 1 6806545 6750 ke no types 6 7
  thermo 100
  thermo_style custom step v_ftemp pe f_swp[1] f_swp[2]
  run ${nsteps}
  run 324
WARNING: No fixes with time integration, atoms won't move (../verlet.cpp:60)
PPPM initialization ...
  using 12-bit tables for long-range coulomb (../kspace.cpp:340)
  G vector (1/distance) = 0.29588697
  grid = 45 45 200
  stencil order = 5
  estimated absolute RMS force accuracy = 0.00034195275
  estimated relative force accuracy = 1.0297805e-06
  using double precision KISS FFT
  3d grid and FFT values/proc = 446148 301725
  generated 45 of 45 mixed pair_coeff terms from arithmetic mixing rule
Per MPI rank memory allocation (min/avg/max) = 21.22 | 29.57 | 51.96 Mbytes
Step v_ftemp PotEng f_swp[1] f_swp[2] 
    6156         6750   -539349.81            0            0 
    6200         6750   -539326.06           44           24 
    6300         6750    -539353.8          144           76 
    6400         6750   -539405.48          244          126 
    6480         6750   -539406.28          324          162 
Loop time of 72.6641 on 4 procs for 324 steps with 2925 atoms

Performance: 0.193 ns/day, 124.595 hours/ns, 4.459 timesteps/s
90.6% CPU use with 4 MPI tasks x no OpenMP threads

MPI task timing breakdown:
Section |  min time  |  avg time  |  max time  |%varavg| %total
---------------------------------------------------------------
Pair    | 0.30502    | 1.6866     | 2.6872     |  76.9 |  2.32
Bond    | 0.00062058 | 0.0013445  | 0.0032445  |   3.0 |  0.00
Kspace  | 17.741     | 18.741     | 20.131     |  23.1 | 25.79
Neigh   | 4.1701     | 4.1833     | 4.2087     |   0.7 |  5.76
Comm    | 0.19033    | 0.20747    | 0.22274    |   3.0 |  0.29
Output  | 8.7512e-05 | 0.00016977 | 0.00031089 |   0.0 |  0.00
Modify  | 47.831     | 47.836     | 47.842     |   0.1 | 65.83
Other   |            | 0.007771   |            |       |  0.01

Nlocal:         731.25 ave        1134 max         279 min
Histogram: 1 0 1 0 0 0 0 0 1 1
Nghost:           6900 ave        9526 max        4389 min
Histogram: 1 1 0 0 0 0 0 0 1 1
Neighs:         350442 ave      565947 max       59876 min
Histogram: 1 0 0 1 0 0 0 0 0 2

Total # of neighbors = 1401769
Ave neighs/atom = 479.23726
Ave special neighs/atom = 0.043076923
Neighbor list builds = 648
Dangerous builds = 0

  unfix swp
  thermo_style custom step temp pe

next temp
jump SELF minimize_temp

  variable ftemp equal v_temp

  # Electrostatic relaxation
  fix swp bFe atom/swap 1 1 ${rand} ${temp} ke no types 6 7
  fix swp bFe atom/swap 1 1 594805 ${temp} ke no types 6 7
  fix swp bFe atom/swap 1 1 594805 6075 ke no types 6 7
  thermo 100
  thermo_style custom step v_ftemp pe f_swp[1] f_swp[2]
  run ${nsteps}
  run 324
WARNING: No fixes with time integration, atoms won't move (../verlet.cpp:60)
PPPM initialization ...
  using 12-bit tables for long-range coulomb (../kspace.cpp:340)
  G vector (1/distance) = 0.29588697
  grid = 45 45 200
  stencil order = 5
  estimated absolute RMS force accuracy = 0.00034195275
  estimated relative force accuracy = 1.0297805e-06
  using double precision KISS FFT
  3d grid and FFT values/proc = 446148 301725
  generated 45 of 45 mixed pair_coeff terms from arithmetic mixing rule
Per MPI rank memory allocation (min/avg/max) = 21.22 | 29.57 | 51.96 Mbytes
Step v_ftemp PotEng f_swp[1] f_swp[2] 
    6480         6075   -539406.28            0            0 
    6500         6075   -539424.46           20            3 
    6600         6075   -539430.48          120           49 
    6700         6075   -539405.46          220           99 
    6800         6075    -539401.3          320          143 
    6804         6075   -539421.86          324          145 
Loop time of 70.9436 on 4 procs for 324 steps with 2925 atoms

Performance: 0.197 ns/day, 121.645 hours/ns, 4.567 timesteps/s
91.9% CPU use with 4 MPI tasks x no OpenMP threads

MPI task timing breakdown:
Section |  min time  |  avg time  |  max time  |%varavg| %total
---------------------------------------------------------------
Pair    | 0.30811    | 1.6983     | 2.7151     |  77.3 |  2.39
Bond    | 0.00061845 | 0.0013998  | 0.0033087  |   3.0 |  0.00
Kspace  | 17.355     | 18.375     | 19.766     |  23.5 | 25.90
Neigh   | 4.0681     | 4.0765     | 4.0911     |   0.5 |  5.75
Comm    | 0.13402    | 0.15577    | 0.17163    |   3.7 |  0.22
Output  | 0.000105   | 0.00030852 | 0.00071837 |   0.0 |  0.00
Modify  | 46.623     | 46.628     | 46.634     |   0.1 | 65.73
Other   |            | 0.007886   |            |       |  0.01

Nlocal:         731.25 ave        1134 max         279 min
Histogram: 1 0 1 0 0 0 0 0 1 1
Nghost:           6900 ave        9526 max        4389 min
Histogram: 1 1 0 0 0 0 0 0 1 1
Neighs:         350442 ave      565947 max       59876 min
Histogram: 1 0 0 1 0 0 0 0 0 2

Total # of neighbors = 1401769
Ave neighs/atom = 479.23726
Ave special neighs/atom = 0.043076923
Neighbor list builds = 648
Dangerous builds = 0

  unfix swp
  thermo_style custom step temp pe

next temp
jump SELF minimize_temp

  variable ftemp equal v_temp

  # Electrostatic relaxation
  fix swp bFe atom/swap 1 1 ${rand} ${temp} ke no types 6 7
  fix swp bFe atom/swap 1 1 3129163 ${temp} ke no types 6 7
  fix swp bFe atom/swap 1 1 3129163 5467 ke no types 6 7
  thermo 100
  thermo_style custom step v_ftemp pe f_swp[1] f_swp[2]
  run ${nsteps}
  run 324
WARNING: No fixes with time integration, atoms won't move (../verlet.cpp:60)
PPPM initialization ...
  using 12-bit tables for long-range coulomb (../kspace.cpp:340)
  G vector (1/distance) = 0.29588697
  grid = 45 45 200
  stencil order = 5
  estimated absolute RMS force accuracy = 0.00034195275
  estimated relative force accuracy = 1.0297805e-06
  using double precision KISS FFT
  3d grid and FFT values/proc = 446148 301725
  generated 45 of 45 mixed pair_coeff terms from arithmetic mixing rule
Per MPI rank memory allocation (min/avg/max) = 21.22 | 29.57 | 51.96 Mbytes
Step v_ftemp PotEng f_swp[1] f_swp[2] 
    6804         5467   -539421.86            0            0 
    6900         5467   -539402.76           96           34 
    7000         5467   -539413.59          196           72 
    7100         5467      -539372          296          119 
    7128         5467   -539428.25          324          130 
Loop time of 70.7472 on 4 procs for 324 steps with 2925 atoms

Performance: 0.198 ns/day, 121.309 hours/ns, 4.580 timesteps/s
92.1% CPU use with 4 MPI tasks x no OpenMP threads

MPI task timing breakdown:
Section |  min time  |  avg time  |  max time  |%varavg| %total
---------------------------------------------------------------
Pair    | 0.3007     | 1.6902     | 2.7162     |  77.6 |  2.39
Bond    | 0.00069897 | 0.0013073  | 0.0029734  |   2.7 |  0.00
Kspace  | 17.508     | 18.544     | 19.924     |  23.5 | 26.21
Neigh   | 4.0294     | 4.0372     | 4.0495     |   0.4 |  5.71
Comm    | 0.1262     | 0.15493    | 0.17557    |   4.9 |  0.22
Output  | 8.5201e-05 | 0.00021088 | 0.00048137 |   0.0 |  0.00
Modify  | 46.303     | 46.312     | 46.328     |   0.1 | 65.46
Other   |            | 0.00704    |            |       |  0.01

Nlocal:         731.25 ave        1134 max         279 min
Histogram: 1 0 1 0 0 0 0 0 1 1
Nghost:           6900 ave        9526 max        4389 min
Histogram: 1 1 0 0 0 0 0 0 1 1
Neighs:         350442 ave      565947 max       59876 min
Histogram: 1 0 0 1 0 0 0 0 0 2

Total # of neighbors = 1401769
Ave neighs/atom = 479.23726
Ave special neighs/atom = 0.043076923
Neighbor list builds = 648
Dangerous builds = 0

  unfix swp
  thermo_style custom step temp pe

next temp
jump SELF minimize_temp

  variable ftemp equal v_temp

  # Electrostatic relaxation
  fix swp bFe atom/swap 1 1 ${rand} ${temp} ke no types 6 7
  fix swp bFe atom/swap 1 1 8397505 ${temp} ke no types 6 7
  fix swp bFe atom/swap 1 1 8397505 4920 ke no types 6 7
  thermo 100
  thermo_style custom step v_ftemp pe f_swp[1] f_swp[2]
  run ${nsteps}
  run 324
WARNING: No fixes with time integration, atoms won't move (../verlet.cpp:60)
PPPM initialization ...
  using 12-bit tables for long-range coulomb (../kspace.cpp:340)
  G vector (1/distance) = 0.29588697
  grid = 45 45 200
  stencil order = 5
  estimated absolute RMS force accuracy = 0.00034195275
  estimated relative force accuracy = 1.0297805e-06
  using double precision KISS FFT
  3d grid and FFT values/proc = 446148 301725
  generated 45 of 45 mixed pair_coeff terms from arithmetic mixing rule
Per MPI rank memory allocation (min/avg/max) = 21.22 | 29.57 | 51.96 Mbytes
Step v_ftemp PotEng f_swp[1] f_swp[2] 
    7128         4920   -539428.25            0            0 
    7200         4920   -539404.37           72           28 
    7300         4920    -539397.7          172           61 
    7400         4920   -539386.17          272          104 
    7452         4920   -539401.32          324          123 
Loop time of 70.8904 on 4 procs for 324 steps with 2925 atoms

Performance: 0.197 ns/day, 121.554 hours/ns, 4.570 timesteps/s
92.8% CPU use with 4 MPI tasks x no OpenMP threads

MPI task timing breakdown:
Section |  min time  |  avg time  |  max time  |%varavg| %total
---------------------------------------------------------------
Pair    | 0.29135    | 1.6181     | 2.5912     |  75.0 |  2.28
Bond    | 0.0005241  | 0.0011299  | 0.0026981  |   2.7 |  0.00
Kspace  | 17.423     | 18.403     | 19.724     |  22.3 | 25.96
Neigh   | 3.9762     | 3.9863     | 4.0053     |   0.6 |  5.62
Comm    | 0.17956    | 0.21693    | 0.2405     |   5.2 |  0.31
Output  | 7.4844e-05 | 0.00018281 | 0.00041921 |   0.0 |  0.00
Modify  | 46.647     | 46.658     | 46.671     |   0.2 | 65.82
Other   |            | 0.006688   |            |       |  0.01

Nlocal:         731.25 ave        1134 max         279 min
Histogram: 1 0 1 0 0 0 0 0 1 1
Nghost:           6900 ave        9526 max        4389 min
Histogram: 1 1 0 0 0 0 0 0 1 1
Neighs:         350442 ave      565947 max       59876 min
Histogram: 1 0 0 1 0 0 0 0 0 2

Total # of neighbors = 1401769
Ave neighs/atom = 479.23726
Ave special neighs/atom = 0.043076923
Neighbor list builds = 648
Dangerous builds = 0

  unfix swp
  thermo_style custom step temp pe

next temp
jump SELF minimize_temp

  variable ftemp equal v_temp

  # Electrostatic relaxation
  fix swp bFe atom/swap 1 1 ${rand} ${temp} ke no types 6 7
  fix swp bFe atom/swap 1 1 7746391 ${temp} ke no types 6 7
  fix swp bFe atom/swap 1 1 7746391 4428 ke no types 6 7
  thermo 100
  thermo_style custom step v_ftemp pe f_swp[1] f_swp[2]
  run ${nsteps}
  run 324
WARNING: No fixes with time integration, atoms won't move (../verlet.cpp:60)
PPPM initialization ...
  using 12-bit tables for long-range coulomb (../kspace.cpp:340)
  G vector (1/distance) = 0.29588697
  grid = 45 45 200
  stencil order = 5
  estimated absolute RMS force accuracy = 0.00034195275
  estimated relative force accuracy = 1.0297805e-06
  using double precision KISS FFT
  3d grid and FFT values/proc = 446148 301725
  generated 45 of 45 mixed pair_coeff terms from arithmetic mixing rule
Per MPI rank memory allocation (min/avg/max) = 21.22 | 29.57 | 51.96 Mbytes
Step v_ftemp PotEng f_swp[1] f_swp[2] 
    7452         4428   -539401.32            0            0 
    7500         4428   -539431.45           48           12 
    7600         4428   -539389.16          148           32 
    7700         4428   -539422.64          248           62 
    7776         4428   -539434.26          324           78 
Loop time of 71.0784 on 4 procs for 324 steps with 2925 atoms

Performance: 0.197 ns/day, 121.876 hours/ns, 4.558 timesteps/s
92.0% CPU use with 4 MPI tasks x no OpenMP threads

MPI task timing breakdown:
Section |  min time  |  avg time  |  max time  |%varavg| %total
---------------------------------------------------------------
Pair    | 0.3046     | 1.6441     | 2.6108     |  75.1 |  2.31
Bond    | 0.00051565 | 0.0012135  | 0.0031242  |   3.2 |  0.00
Kspace  | 17.259     | 18.227     | 19.567     |  22.6 | 25.64
Neigh   | 3.9809     | 3.9894     | 4.005      |   0.5 |  5.61
Comm    | 0.12931    | 0.14844    | 0.1616     |   3.4 |  0.21
Output  | 9.8678e-05 | 0.00026819 | 0.00064183 |   0.0 |  0.00
Modify  | 47.055     | 47.06      | 47.065     |   0.1 | 66.21
Other   |            | 0.008327   |            |       |  0.01

Nlocal:         731.25 ave        1134 max         279 min
Histogram: 1 0 1 0 0 0 0 0 1 1
Nghost:           6900 ave        9526 max        4389 min
Histogram: 1 1 0 0 0 0 0 0 1 1
Neighs:         350442 ave      565947 max       59876 min
Histogram: 1 0 0 1 0 0 0 0 0 2

Total # of neighbors = 1401769
Ave neighs/atom = 479.23726
Ave special neighs/atom = 0.043076923
Neighbor list builds = 648
Dangerous builds = 0

  unfix swp
  thermo_style custom step temp pe

next temp
jump SELF minimize_temp

  variable ftemp equal v_temp

  # Electrostatic relaxation
  fix swp bFe atom/swap 1 1 ${rand} ${temp} ke no types 6 7
  fix swp bFe atom/swap 1 1 6520128 ${temp} ke no types 6 7
  fix swp bFe atom/swap 1 1 6520128 3985 ke no types 6 7
  thermo 100
  thermo_style custom step v_ftemp pe f_swp[1] f_swp[2]
  run ${nsteps}
  run 324
WARNING: No fixes with time integration, atoms won't move (../verlet.cpp:60)
PPPM initialization ...
  using 12-bit tables for long-range coulomb (../kspace.cpp:340)
  G vector (1/distance) = 0.29588697
  grid = 45 45 200
  stencil order = 5
  estimated absolute RMS force accuracy = 0.00034195275
  estimated relative force accuracy = 1.0297805e-06
  using double precision KISS FFT
  3d grid and FFT values/proc = 446148 301725
  generated 45 of 45 mixed pair_coeff terms from arithmetic mixing rule
Per MPI rank memory allocation (min/avg/max) = 21.22 | 29.57 | 51.96 Mbytes
Step v_ftemp PotEng f_swp[1] f_swp[2] 
    7776         3985   -539434.26            0            0 
    7800         3985   -539438.54           24            5 
    7900         3985   -539423.73          124           38 
    8000         3985    -539432.6          224           60 
    8100         3985   -539398.79          324           81 
Loop time of 70.7003 on 4 procs for 324 steps with 2925 atoms

Performance: 0.198 ns/day, 121.228 hours/ns, 4.583 timesteps/s
92.9% CPU use with 4 MPI tasks x no OpenMP threads

MPI task timing breakdown:
Section |  min time  |  avg time  |  max time  |%varavg| %total
---------------------------------------------------------------
Pair    | 0.30863    | 1.6301     | 2.5685     |  74.9 |  2.31
Bond    | 0.0004842  | 0.001159   | 0.0026961  |   2.6 |  0.00
Kspace  | 17.614     | 18.553     | 19.874     |  22.2 | 26.24
Neigh   | 3.9257     | 3.9344     | 3.9484     |   0.4 |  5.56
Comm    | 0.12938    | 0.14629    | 0.1583     |   3.0 |  0.21
Output  | 7.6671e-05 | 0.00018978 | 0.00043123 |   0.0 |  0.00
Modify  | 46.424     | 46.428     | 46.433     |   0.1 | 65.67
Other   |            | 0.006504   |            |       |  0.01

Nlocal:         731.25 ave        1134 max         279 min
Histogram: 1 0 1 0 0 0 0 0 1 1
Nghost:           6900 ave        9526 max        4389 min
Histogram: 1 1 0 0 0 0 0 0 1 1
Neighs:         350442 ave      565947 max       59876 min
Histogram: 1 0 0 1 0 0 0 0 0 2

Total # of neighbors = 1401769
Ave neighs/atom = 479.23726
Ave special neighs/atom = 0.043076923
Neighbor list builds = 648
Dangerous builds = 0

  unfix swp
  thermo_style custom step temp pe

next temp
jump SELF minimize_temp

  variable ftemp equal v_temp

  # Electrostatic relaxation
  fix swp bFe atom/swap 1 1 ${rand} ${temp} ke no types 6 7
  fix swp bFe atom/swap 1 1 4419602 ${temp} ke no types 6 7
  fix swp bFe atom/swap 1 1 4419602 3586 ke no types 6 7
  thermo 100
  thermo_style custom step v_ftemp pe f_swp[1] f_swp[2]
  run ${nsteps}
  run 324
WARNING: No fixes with time integration, atoms won't move (../verlet.cpp:60)
PPPM initialization ...
  using 12-bit tables for long-range coulomb (../kspace.cpp:340)
  G vector (1/distance) = 0.29588697
  grid = 45 45 200
  stencil order = 5
  estimated absolute RMS force accuracy = 0.00034195275
  estimated relative force accuracy = 1.0297805e-06
  using double precision KISS FFT
  3d grid and FFT values/proc = 446148 301725
  generated 45 of 45 mixed pair_coeff terms from arithmetic mixing rule
Per MPI rank memory allocation (min/avg/max) = 21.22 | 29.57 | 51.96 Mbytes
Step v_ftemp PotEng f_swp[1] f_swp[2] 
    8100         3586   -539398.79            0            0 
    8200         3586   -539434.41          100           21 
    8300         3586    -539430.5          200           41 
    8400         3586   -539417.24          300           65 
    8424         3586   -539426.35          324           71 
Loop time of 71.2501 on 4 procs for 324 steps with 2925 atoms

Performance: 0.196 ns/day, 122.171 hours/ns, 4.547 timesteps/s
91.8% CPU use with 4 MPI tasks x no OpenMP threads

MPI task timing breakdown:
Section |  min time  |  avg time  |  max time  |%varavg| %total
---------------------------------------------------------------
Pair    | 0.29901    | 1.6583     | 2.6364     |  76.2 |  2.33
Bond    | 0.00054819 | 0.0011472  | 0.0027549  |   2.7 |  0.00
Kspace  | 17.697     | 18.685     | 20.049     |  22.8 | 26.22
Neigh   | 4.1207     | 4.1327     | 4.1454     |   0.5 |  5.80
Comm    | 0.15234    | 0.16787    | 0.18399    |   3.1 |  0.24
Output  | 8.3646e-05 | 0.00021284 | 0.00048881 |   0.0 |  0.00
Modify  | 46.589     | 46.597     | 46.61      |   0.1 | 65.40
Other   |            | 0.007376   |            |       |  0.01

Nlocal:         731.25 ave        1134 max         279 min
Histogram: 1 0 1 0 0 0 0 0 1 1
Nghost:           6900 ave        9526 max        4389 min
Histogram: 1 1 0 0 0 0 0 0 1 1
Neighs:         350442 ave      565947 max       59876 min
Histogram: 1 0 0 1 0 0 0 0 0 2

Total # of neighbors = 1401769
Ave neighs/atom = 479.23726
Ave special neighs/atom = 0.043076923
Neighbor list builds = 648
Dangerous builds = 0

  unfix swp
  thermo_style custom step temp pe

next temp
jump SELF minimize_temp

  variable ftemp equal v_temp

  # Electrostatic relaxation
  fix swp bFe atom/swap 1 1 ${rand} ${temp} ke no types 6 7
  fix swp bFe atom/swap 1 1 2199081 ${temp} ke no types 6 7
  fix swp bFe atom/swap 1 1 2199081 3227 ke no types 6 7
  thermo 100
  thermo_style custom step v_ftemp pe f_swp[1] f_swp[2]
  run ${nsteps}
  run 324
WARNING: No fixes with time integration, atoms won't move (../verlet.cpp:60)
PPPM initialization ...
  using 12-bit tables for long-range coulomb (../kspace.cpp:340)
  G vector (1/distance) = 0.29588697
  grid = 45 45 200
  stencil order = 5
  estimated absolute RMS force accuracy = 0.00034195275
  estimated relative force accuracy = 1.0297805e-06
  using double precision KISS FFT
  3d grid and FFT values/proc = 446148 301725
  generated 45 of 45 mixed pair_coeff terms from arithmetic mixing rule
Per MPI rank memory allocation (min/avg/max) = 21.22 | 29.57 | 51.96 Mbytes
Step v_ftemp PotEng f_swp[1] f_swp[2] 
    8424         3227   -539426.35            0            0 
    8500         3227   -539438.68           76            9 
    8600         3227   -539416.29          176           36 
    8700         3227   -539432.92          276           50 
    8748         3227    -539429.2          324           60 
Loop time of 71.1144 on 4 procs for 324 steps with 2925 atoms

Performance: 0.197 ns/day, 121.938 hours/ns, 4.556 timesteps/s
92.4% CPU use with 4 MPI tasks x no OpenMP threads

MPI task timing breakdown:
Section |  min time  |  avg time  |  max time  |%varavg| %total
---------------------------------------------------------------
Pair    | 0.29567    | 1.6174     | 2.5816     |  75.1 |  2.27
Bond    | 0.00053085 | 0.0011029  | 0.0027084  |   2.8 |  0.00
Kspace  | 17.523     | 18.488     | 19.81      |  22.2 | 26.00
Neigh   | 3.9317     | 3.9425     | 3.9559     |   0.4 |  5.54
Comm    | 0.16511    | 0.19908    | 0.21741    |   4.5 |  0.28
Output  | 8.107e-05  | 0.00018318 | 0.00039782 |   0.0 |  0.00
Modify  | 46.84      | 46.859     | 46.892     |   0.3 | 65.89
Other   |            | 0.007384   |            |       |  0.01

Nlocal:         731.25 ave        1134 max         279 min
Histogram: 1 0 1 0 0 0 0 0 1 1
Nghost:           6900 ave        9526 max        4389 min
Histogram: 1 1 0 0 0 0 0 0 1 1
Neighs:         350442 ave      565947 max       59876 min
Histogram: 1 0 0 1 0 0 0 0 0 2

Total # of neighbors = 1401769
Ave neighs/atom = 479.23726
Ave special neighs/atom = 0.043076923
Neighbor list builds = 648
Dangerous builds = 0

  unfix swp
  thermo_style custom step temp pe

next temp
jump SELF minimize_temp

  variable ftemp equal v_temp

  # Electrostatic relaxation
  fix swp bFe atom/swap 1 1 ${rand} ${temp} ke no types 6 7
  fix swp bFe atom/swap 1 1 6067438 ${temp} ke no types 6 7
  fix swp bFe atom/swap 1 1 6067438 2904 ke no types 6 7
  thermo 100
  thermo_style custom step v_ftemp pe f_swp[1] f_swp[2]
  run ${nsteps}
  run 324
WARNING: No fixes with time integration, atoms won't move (../verlet.cpp:60)
PPPM initialization ...
  using 12-bit tables for long-range coulomb (../kspace.cpp:340)
  G vector (1/distance) = 0.29588697
  grid = 45 45 200
  stencil order = 5
  estimated absolute RMS force accuracy = 0.00034195275
  estimated relative force accuracy = 1.0297805e-06
  using double precision KISS FFT
  3d grid and FFT values/proc = 446148 301725
  generated 45 of 45 mixed pair_coeff terms from arithmetic mixing rule
Per MPI rank memory allocation (min/avg/max) = 21.22 | 29.57 | 51.96 Mbytes
Step v_ftemp PotEng f_swp[1] f_swp[2] 
    8748         2904    -539429.2            0            0 
    8800         2904   -539418.11           52           12 
    8900         2904   -539442.59          152           31 
    9000         2904   -539437.32          252           37 
    9072         2904   -539439.46          324           45 
Loop time of 70.8044 on 4 procs for 324 steps with 2925 atoms

Performance: 0.198 ns/day, 121.407 hours/ns, 4.576 timesteps/s
91.9% CPU use with 4 MPI tasks x no OpenMP threads

MPI task timing breakdown:
Section |  min time  |  avg time  |  max time  |%varavg| %total
---------------------------------------------------------------
Pair    | 0.30323    | 1.6636     | 2.6653     |  76.0 |  2.35
Bond    | 0.00056495 | 0.0012704  | 0.0031348  |   3.0 |  0.00
Kspace  | 17.288     | 18.285     | 19.643     |  22.9 | 25.82
Neigh   | 3.9838     | 3.9924     | 4.0064     |   0.4 |  5.64
Comm    | 0.1445     | 0.16828    | 0.18388    |   3.8 |  0.24
Output  | 8.1344e-05 | 0.00018221 | 0.00039543 |   0.0 |  0.00
Modify  | 46.672     | 46.685     | 46.697     |   0.1 | 65.93
Other   |            | 0.008587   |            |       |  0.01

Nlocal:         731.25 ave        1134 max         279 min
Histogram: 1 0 1 0 0 0 0 0 1 1
Nghost:           6900 ave        9526 max        4389 min
Histogram: 1 1 0 0 0 0 0 0 1 1
Neighs:         350442 ave      565947 max       59876 min
Histogram: 1 0 0 1 0 0 0 0 0 2

Total # of neighbors = 1401769
Ave neighs/atom = 479.23726
Ave special neighs/atom = 0.043076923
Neighbor list builds = 648
Dangerous builds = 0

  unfix swp
  thermo_style custom step temp pe

next temp
jump SELF minimize_temp

  variable ftemp equal v_temp

  # Electrostatic relaxation
  fix swp bFe atom/swap 1 1 ${rand} ${temp} ke no types 6 7
  fix swp bFe atom/swap 1 1 3316115 ${temp} ke no types 6 7
  fix swp bFe atom/swap 1 1 3316115 2613 ke no types 6 7
  thermo 100
  thermo_style custom step v_ftemp pe f_swp[1] f_swp[2]
  run ${nsteps}
  run 324
WARNING: No fixes with time integration, atoms won't move (../verlet.cpp:60)
PPPM initialization ...
  using 12-bit tables for long-range coulomb (../kspace.cpp:340)
  G vector (1/distance) = 0.29588697
  grid = 45 45 200
  stencil order = 5
  estimated absolute RMS force accuracy = 0.00034195275
  estimated relative force accuracy = 1.0297805e-06
  using double precision KISS FFT
  3d grid and FFT values/proc = 446148 301725
  generated 45 of 45 mixed pair_coeff terms from arithmetic mixing rule
Per MPI rank memory allocation (min/avg/max) = 21.22 | 29.57 | 51.96 Mbytes
Step v_ftemp PotEng f_swp[1] f_swp[2] 
    9072         2613   -539439.46            0            0 
    9100         2613   -539425.17           28            5 
    9200         2613   -539414.76          128           25 
    9300         2613   -539439.23          228           36 
    9396         2613   -539442.13          324           48 
Loop time of 74.174 on 4 procs for 324 steps with 2925 atoms

Performance: 0.189 ns/day, 127.185 hours/ns, 4.368 timesteps/s
91.1% CPU use with 4 MPI tasks x no OpenMP threads

MPI task timing breakdown:
Section |  min time  |  avg time  |  max time  |%varavg| %total
---------------------------------------------------------------
Pair    | 0.3068     | 1.6411     | 2.6284     |  75.8 |  2.21
Bond    | 0.00042745 | 0.0010346  | 0.0026795  |   3.0 |  0.00
Kspace  | 18.048     | 19.035     | 20.37      |  22.3 | 25.66
Neigh   | 4.1575     | 4.176      | 4.1943     |   0.6 |  5.63
Comm    | 0.28795    | 0.32967    | 0.38671    |   6.2 |  0.44
Output  | 8.507e-05  | 0.00019605 | 0.00043792 |   0.0 |  0.00
Modify  | 48.947     | 48.984     | 49.007     |   0.3 | 66.04
Other   |            | 0.006551   |            |       |  0.01

Nlocal:         731.25 ave        1134 max         279 min
[...]
Neigh   | 3.8172     | 3.8236     | 3.8331     |   0.3 |  5.69
Comm    | 0.10408    | 0.11608    | 0.12585    |   2.6 |  0.17
Output  | 7.3183e-05 | 0.00019448 | 0.0004619  |   0.0 |  0.00
Modify  | 44.036     | 44.04      | 44.044     |   0.1 | 65.54
Other   |            | 0.006187   |            |       |  0.01

Nlocal:         731.25 ave        1134 max         279 min
Histogram: 1 0 1 0 0 0 0 0 1 1
Nghost:           6900 ave        9526 max        4389 min
Histogram: 1 1 0 0 0 0 0 0 1 1
Neighs:         350442 ave      565947 max       59876 min
Histogram: 1 0 0 1 0 0 0 0 0 2

Total # of neighbors = 1401769
Ave neighs/atom = 479.23726
Ave special neighs/atom = 0.043076923
Neighbor list builds = 648
Dangerous builds = 0

  unfix swp
  thermo_style custom step temp pe

next temp
jump SELF minimize_temp

  variable ftemp equal v_temp

  # Electrostatic relaxation
  fix swp bFe atom/swap 1 1 ${rand} ${temp} ke no types 6 7
  fix swp bFe atom/swap 1 1 7973751 ${temp} ke no types 6 7
  fix swp bFe atom/swap 1 1 7973751 6 ke no types 6 7
  thermo 100
  thermo_style custom step v_ftemp pe f_swp[1] f_swp[2]
  run ${nsteps}
  run 324
WARNING: No fixes with time integration, atoms won't move (../verlet.cpp:60)
PPPM initialization ...
  using 12-bit tables for long-range coulomb (../kspace.cpp:340)
  G vector (1/distance) = 0.29588697
  grid = 45 45 200
  stencil order = 5
  estimated absolute RMS force accuracy = 0.00034195275
  estimated relative force accuracy = 1.0297805e-06
  using double precision KISS FFT
  3d grid and FFT values/proc = 446148 301725
  generated 45 of 45 mixed pair_coeff terms from arithmetic mixing rule
Per MPI rank memory allocation (min/avg/max) = 21.22 | 29.57 | 51.96 Mbytes
Step v_ftemp PotEng f_swp[1] f_swp[2] 
   26244            6   -539449.35            0            0 
   26300            6   -539449.35           56            0 
   26400            6   -539449.35          156            0 
   26500            6   -539449.35          256            0 
   26568            6   -539449.35          324            0 
Loop time of 67.8971 on 4 procs for 324 steps with 2925 atoms

Performance: 0.206 ns/day, 116.422 hours/ns, 4.772 timesteps/s
93.8% CPU use with 4 MPI tasks x no OpenMP threads

MPI task timing breakdown:
Section |  min time  |  avg time  |  max time  |%varavg| %total
---------------------------------------------------------------
Pair    | 0.29364    | 1.6039     | 2.5652     |  74.5 |  2.36
Bond    | 0.00047631 | 0.0011421  | 0.0027608  |   2.8 |  0.00
Kspace  | 16.32      | 17.282     | 18.592     |  22.7 | 25.45
Neigh   | 3.8401     | 3.8477     | 3.8601     |   0.4 |  5.67
Comm    | 0.12397    | 0.13932    | 0.15127    |   3.0 |  0.21
Output  | 0.00018299 | 0.00031578 | 0.00058053 |   0.0 |  0.00
Modify  | 45.011     | 45.016     | 45.022     |   0.1 | 66.30
Other   |            | 0.006527   |            |       |  0.01

Nlocal:         731.25 ave        1134 max         279 min
Histogram: 1 0 1 0 0 0 0 0 1 1
Nghost:           6900 ave        9526 max        4389 min
Histogram: 1 1 0 0 0 0 0 0 1 1
Neighs:         350442 ave      565947 max       59876 min
Histogram: 1 0 0 1 0 0 0 0 0 2

Total # of neighbors = 1401769
Ave neighs/atom = 479.23726
Ave special neighs/atom = 0.043076923
Neighbor list builds = 648
Dangerous builds = 0

  unfix swp
  thermo_style custom step temp pe

next temp
jump SELF minimize_temp

  variable ftemp equal v_temp

  # Electrostatic relaxation
  fix swp bFe atom/swap 1 1 ${rand} ${temp} ke no types 6 7
  fix swp bFe atom/swap 1 1 8822405 ${temp} ke no types 6 7
  fix swp bFe atom/swap 1 1 8822405 5 ke no types 6 7
  thermo 100
  thermo_style custom step v_ftemp pe f_swp[1] f_swp[2]
  run ${nsteps}
  run 324
WARNING: No fixes with time integration, atoms won't move (../verlet.cpp:60)
PPPM initialization ...
  using 12-bit tables for long-range coulomb (../kspace.cpp:340)
  G vector (1/distance) = 0.29588697
  grid = 45 45 200
  stencil order = 5
  estimated absolute RMS force accuracy = 0.00034195275
  estimated relative force accuracy = 1.0297805e-06
  using double precision KISS FFT
  3d grid and FFT values/proc = 446148 301725
  generated 45 of 45 mixed pair_coeff terms from arithmetic mixing rule
Per MPI rank memory allocation (min/avg/max) = 21.22 | 29.57 | 51.96 Mbytes
Step v_ftemp PotEng f_swp[1] f_swp[2] 
   26568            5   -539449.35            0            0 
   26600            5   -539449.35           32            0 
   26700            5   -539449.35          132            0 
   26800            5   -539449.35          232            0 
   26892            5   -539449.35          324            0 
Loop time of 67.5559 on 4 procs for 324 steps with 2925 atoms

Performance: 0.207 ns/day, 115.837 hours/ns, 4.796 timesteps/s
93.9% CPU use with 4 MPI tasks x no OpenMP threads

MPI task timing breakdown:
Section |  min time  |  avg time  |  max time  |%varavg| %total
---------------------------------------------------------------
Pair    | 0.29158    | 1.6055     | 2.5885     |  75.0 |  2.38
Bond    | 0.00057766 | 0.0011388  | 0.0026525  |   2.6 |  0.00
Kspace  | 16.43      | 17.414     | 18.728     |  22.8 | 25.78
Neigh   | 3.8568     | 3.8653     | 3.8794     |   0.4 |  5.72
Comm    | 0.13396    | 0.15125    | 0.1636     |   3.0 |  0.22
Output  | 8.3237e-05 | 0.00020641 | 0.00046239 |   0.0 |  0.00
Modify  | 44.508     | 44.512     | 44.517     |   0.1 | 65.89
Other   |            | 0.006521   |            |       |  0.01

Nlocal:         731.25 ave        1134 max         279 min
Histogram: 1 0 1 0 0 0 0 0 1 1
Nghost:           6900 ave        9526 max        4389 min
Histogram: 1 1 0 0 0 0 0 0 1 1
Neighs:         350442 ave      565947 max       59876 min
Histogram: 1 0 0 1 0 0 0 0 0 2

Total # of neighbors = 1401769
Ave neighs/atom = 479.23726
Ave special neighs/atom = 0.043076923
Neighbor list builds = 648
Dangerous builds = 0

  unfix swp
  thermo_style custom step temp pe

next temp
jump SELF minimize_temp

  variable ftemp equal v_temp

  # Electrostatic relaxation
  fix swp bFe atom/swap 1 1 ${rand} ${temp} ke no types 6 7
  fix swp bFe atom/swap 1 1 1866513 ${temp} ke no types 6 7
  fix swp bFe atom/swap 1 1 1866513 4 ke no types 6 7
  thermo 100
  thermo_style custom step v_ftemp pe f_swp[1] f_swp[2]
  run ${nsteps}
  run 324
WARNING: No fixes with time integration, atoms won't move (../verlet.cpp:60)
PPPM initialization ...
  using 12-bit tables for long-range coulomb (../kspace.cpp:340)
  G vector (1/distance) = 0.29588697
  grid = 45 45 200
  stencil order = 5
  estimated absolute RMS force accuracy = 0.00034195275
  estimated relative force accuracy = 1.0297805e-06
  using double precision KISS FFT
  3d grid and FFT values/proc = 446148 301725
  generated 45 of 45 mixed pair_coeff terms from arithmetic mixing rule
Per MPI rank memory allocation (min/avg/max) = 21.22 | 29.57 | 51.96 Mbytes
Step v_ftemp PotEng f_swp[1] f_swp[2] 
   26892            4   -539449.35            0            0 
   26900            4   -539449.35            8            0 
   27000            4   -539449.35          108            0 
   27100            4   -539449.35          208            0 
   27200            4   -539449.35          308            0 
   27216            4   -539449.35          324            0 
Loop time of 68.7594 on 4 procs for 324 steps with 2925 atoms

Performance: 0.204 ns/day, 117.900 hours/ns, 4.712 timesteps/s
94.0% CPU use with 4 MPI tasks x no OpenMP threads

MPI task timing breakdown:
Section |  min time  |  avg time  |  max time  |%varavg| %total
---------------------------------------------------------------
Pair    | 0.28873    | 1.5701     | 2.5135     |  73.7 |  2.28
Bond    | 0.00036763 | 0.00097647 | 0.0025568  |   0.0 |  0.00
Kspace  | 16.619     | 17.563     | 18.844     |  22.1 | 25.54
Neigh   | 3.8233     | 3.8315     | 3.8448     |   0.4 |  5.57
Comm    | 0.13023    | 0.14691    | 0.15925    |   3.0 |  0.21
Output  | 0.00011389 | 0.00029954 | 0.00070732 |   0.0 |  0.00
Modify  | 45.635     | 45.64      | 45.645     |   0.1 | 66.38
Other   |            | 0.006627   |            |       |  0.01

Nlocal:         731.25 ave        1134 max         279 min
Histogram: 1 0 1 0 0 0 0 0 1 1
Nghost:           6900 ave        9526 max        4389 min
Histogram: 1 1 0 0 0 0 0 0 1 1
Neighs:         350442 ave      565947 max       59876 min
Histogram: 1 0 0 1 0 0 0 0 0 2

Total # of neighbors = 1401769
Ave neighs/atom = 479.23726
Ave special neighs/atom = 0.043076923
Neighbor list builds = 648
Dangerous builds = 0

  unfix swp
  thermo_style custom step temp pe

next temp
jump SELF minimize_temp

  variable ftemp equal v_temp

  # Electrostatic relaxation
  fix swp bFe atom/swap 1 1 ${rand} ${temp} ke no types 6 7
  fix swp bFe atom/swap 1 1 2979469 ${temp} ke no types 6 7
  fix swp bFe atom/swap 1 1 2979469 3 ke no types 6 7
  thermo 100
  thermo_style custom step v_ftemp pe f_swp[1] f_swp[2]
  run ${nsteps}
  run 324
WARNING: No fixes with time integration, atoms won't move (../verlet.cpp:60)
PPPM initialization ...
  using 12-bit tables for long-range coulomb (../kspace.cpp:340)
  G vector (1/distance) = 0.29588697
  grid = 45 45 200
  stencil order = 5
  estimated absolute RMS force accuracy = 0.00034195275
  estimated relative force accuracy = 1.0297805e-06
  using double precision KISS FFT
  3d grid and FFT values/proc = 446148 301725
  generated 45 of 45 mixed pair_coeff terms from arithmetic mixing rule
Per MPI rank memory allocation (min/avg/max) = 21.22 | 29.57 | 51.96 Mbytes
Step v_ftemp PotEng f_swp[1] f_swp[2] 
   27216            3   -539449.35            0            0 
   27300            3   -539449.35           84            0 
   27400            3   -539449.35          184            0 
   27500            3   -539449.35          284            0 
   27540            3   -539449.35          324            0 
Loop time of 68.6725 on 4 procs for 324 steps with 2925 atoms

Performance: 0.204 ns/day, 117.751 hours/ns, 4.718 timesteps/s
93.5% CPU use with 4 MPI tasks x no OpenMP threads

MPI task timing breakdown:
Section |  min time  |  avg time  |  max time  |%varavg| %total
---------------------------------------------------------------
Pair    | 0.29326    | 1.6219     | 2.6151     |  75.5 |  2.36
Bond    | 0.0005985  | 0.0012204  | 0.0029448  |   2.9 |  0.00
Kspace  | 16.882     | 17.876     | 19.204     |  22.8 | 26.03
Neigh   | 3.8444     | 3.852      | 3.8645     |   0.4 |  5.61
Comm    | 0.11916    | 0.1345     | 0.14582    |   2.9 |  0.20
Output  | 7.9627e-05 | 0.00017159 | 0.00033731 |   0.0 |  0.00
Modify  | 45.176     | 45.18      | 45.185     |   0.1 | 65.79
Other   |            | 0.00667    |            |       |  0.01

Nlocal:         731.25 ave        1134 max         279 min
Histogram: 1 0 1 0 0 0 0 0 1 1
Nghost:           6900 ave        9526 max        4389 min
Histogram: 1 1 0 0 0 0 0 0 1 1
Neighs:         350442 ave      565947 max       59876 min
Histogram: 1 0 0 1 0 0 0 0 0 2

Total # of neighbors = 1401769
Ave neighs/atom = 479.23726
Ave special neighs/atom = 0.043076923
Neighbor list builds = 648
Dangerous builds = 0

  unfix swp
  thermo_style custom step temp pe

next temp
jump SELF minimize_temp

  variable ftemp equal v_temp

  # Electrostatic relaxation
  fix swp bFe atom/swap 1 1 ${rand} ${temp} ke no types 6 7
  fix swp bFe atom/swap 1 1 7974133 ${temp} ke no types 6 7
  fix swp bFe atom/swap 1 1 7974133 2 ke no types 6 7
  thermo 100
  thermo_style custom step v_ftemp pe f_swp[1] f_swp[2]
  run ${nsteps}
  run 324
WARNING: No fixes with time integration, atoms won't move (../verlet.cpp:60)
PPPM initialization ...
  using 12-bit tables for long-range coulomb (../kspace.cpp:340)
  G vector (1/distance) = 0.29588697
  grid = 45 45 200
  stencil order = 5
  estimated absolute RMS force accuracy = 0.00034195275
  estimated relative force accuracy = 1.0297805e-06
  using double precision KISS FFT
  3d grid and FFT values/proc = 446148 301725
  generated 45 of 45 mixed pair_coeff terms from arithmetic mixing rule
Per MPI rank memory allocation (min/avg/max) = 21.22 | 29.57 | 51.96 Mbytes
Step v_ftemp PotEng f_swp[1] f_swp[2] 
   27540            2   -539449.35            0            0 
   27600            2   -539449.35           60            0 
   27700            2   -539449.35          160            0 
   27800            2   -539449.35          260            0 
   27864            2   -539449.35          324            0 
Loop time of 69.1255 on 4 procs for 324 steps with 2925 atoms

Performance: 0.202 ns/day, 118.528 hours/ns, 4.687 timesteps/s
92.8% CPU use with 4 MPI tasks x no OpenMP threads

MPI task timing breakdown:
Section |  min time  |  avg time  |  max time  |%varavg| %total
---------------------------------------------------------------
Pair    | 0.30394    | 1.6449     | 2.6629     |  75.9 |  2.38
Bond    | 0.00052986 | 0.0011662  | 0.0029582  |   3.0 |  0.00
Kspace  | 16.761     | 17.78      | 19.122     |  23.1 | 25.72
Neigh   | 3.9925     | 4.0008     | 4.0139     |   0.4 |  5.79
Comm    | 0.12714    | 0.14357    | 0.15694    |   3.1 |  0.21
Output  | 9.1276e-05 | 0.00023111 | 0.00052407 |   0.0 |  0.00
Modify  | 45.543     | 45.548     | 45.552     |   0.1 | 65.89
Other   |            | 0.007106   |            |       |  0.01

Nlocal:         731.25 ave        1134 max         279 min
Histogram: 1 0 1 0 0 0 0 0 1 1
Nghost:           6900 ave        9526 max        4389 min
Histogram: 1 1 0 0 0 0 0 0 1 1
Neighs:         350442 ave      565947 max       59876 min
Histogram: 1 0 0 1 0 0 0 0 0 2

Total # of neighbors = 1401769
Ave neighs/atom = 479.23726
Ave special neighs/atom = 0.043076923
Neighbor list builds = 648
Dangerous builds = 0

  unfix swp
  thermo_style custom step temp pe

next temp
jump SELF minimize_temp

  variable ftemp equal v_temp

  # Electrostatic relaxation
  fix swp bFe atom/swap 1 1 ${rand} ${temp} ke no types 6 7
  fix swp bFe atom/swap 1 1 9540448 ${temp} ke no types 6 7
  fix swp bFe atom/swap 1 1 9540448 1 ke no types 6 7
  thermo 100
  thermo_style custom step v_ftemp pe f_swp[1] f_swp[2]
  run ${nsteps}
  run 324
WARNING: No fixes with time integration, atoms won't move (../verlet.cpp:60)
PPPM initialization ...
  using 12-bit tables for long-range coulomb (../kspace.cpp:340)
  G vector (1/distance) = 0.29588697
  grid = 45 45 200
  stencil order = 5
  estimated absolute RMS force accuracy = 0.00034195275
  estimated relative force accuracy = 1.0297805e-06
  using double precision KISS FFT
  3d grid and FFT values/proc = 446148 301725
  generated 45 of 45 mixed pair_coeff terms from arithmetic mixing rule
Per MPI rank memory allocation (min/avg/max) = 21.22 | 29.57 | 51.96 Mbytes
Step v_ftemp PotEng f_swp[1] f_swp[2] 
   27864            1   -539449.35            0            0 
   27900            1   -539449.35           36            0 
   28000            1   -539449.35          136            0 
   28100            1   -539449.35          236            0 
   28188            1   -539449.35          324            0 
Loop time of 70.5432 on 4 procs for 324 steps with 2925 atoms

Performance: 0.198 ns/day, 120.959 hours/ns, 4.593 timesteps/s
92.0% CPU use with 4 MPI tasks x no OpenMP threads

MPI task timing breakdown:
Section |  min time  |  avg time  |  max time  |%varavg| %total
---------------------------------------------------------------
Pair    | 0.3023     | 1.657      | 2.691      |  75.9 |  2.35
Bond    | 0.00062371 | 0.0012403  | 0.0029965  |   2.9 |  0.00
Kspace  | 17.285     | 18.319     | 19.674     |  22.8 | 25.97
Neigh   | 4.0529     | 4.0614     | 4.0763     |   0.5 |  5.76
Comm    | 0.12866    | 0.14556    | 0.1592     |   3.2 |  0.21
Output  | 0.00011996 | 0.00025216 | 0.00051926 |   0.0 |  0.00
Modify  | 46.347     | 46.352     | 46.357     |   0.1 | 65.71
Other   |            | 0.006995   |            |       |  0.01

Nlocal:         731.25 ave        1134 max         279 min
Histogram: 1 0 1 0 0 0 0 0 1 1
Nghost:           6900 ave        9526 max        4389 min
Histogram: 1 1 0 0 0 0 0 0 1 1
Neighs:         350442 ave      565947 max       59876 min
Histogram: 1 0 0 1 0 0 0 0 0 2

Total # of neighbors = 1401769
Ave neighs/atom = 479.23726
Ave special neighs/atom = 0.043076923
Neighbor list builds = 648
Dangerous builds = 0

  unfix swp
  thermo_style custom step temp pe

next temp
jump SELF minimize_temp

write_data 001-dbt_3x3_${layer}L_${type}_lqeq.data
write_data 001-dbt_3x3_21L_${type}_lqeq.data
write_data 001-dbt_3x3_21L_fa_tet_half_qeq_lqeq.data
System init for write_data ...
PPPM initialization ...
  using 12-bit tables for long-range coulomb (../kspace.cpp:340)
  G vector (1/distance) = 0.29588697
  grid = 45 45 200
  stencil order = 5
  estimated absolute RMS force accuracy = 0.00034195275
  estimated relative force accuracy = 1.0297805e-06
  using double precision KISS FFT
  3d grid and FFT values/proc = 446148 301725
  generated 45 of 45 mixed pair_coeff terms from arithmetic mixing rule

# Full minimization
minimize 1.0e-6 1.0e-9 1000 10000
PPPM initialization ...
  using 12-bit tables for long-range coulomb (../kspace.cpp:340)
  G vector (1/distance) = 0.29588697
  grid = 45 45 200
  stencil order = 5
  estimated absolute RMS force accuracy = 0.00034195275
  estimated relative force accuracy = 1.0297805e-06
  using double precision KISS FFT
  3d grid and FFT values/proc = 446148 301725
  generated 45 of 45 mixed pair_coeff terms from arithmetic mixing rule
Per MPI rank memory allocation (min/avg/max) = 22.34 | 30.69 | 53.08 Mbytes
Step Temp PotEng 
   28188            0   -539449.35 
   28200            0   -548121.03 
   28224            0   -548166.56 
Loop time of 4.31164 on 4 procs for 36 steps with 2925 atoms

94.3% CPU use with 4 MPI tasks x no OpenMP threads

Minimization stats:
  Stopping criterion = energy tolerance
  Energy initial, next-to-last, final = 
      -539449.35421097  -548166.064510612    -548166.5564011
  Force two-norm initial, final = 3502.1359 32.366239
  Force max component initial, final = 118.26188 7.0914908
  Final line search alpha, max atom move = 0.0048085002 0.034099435
  Iterations, force evaluations = 36 71

MPI task timing breakdown:
Section |  min time  |  avg time  |  max time  |%varavg| %total
---------------------------------------------------------------
Pair    | 0.10739    | 0.55334    | 0.88661    |  43.4 | 12.83
Bond    | 0.00011627 | 0.0003097  | 0.00073753 |   0.0 |  0.01
Kspace  | 3.4069     | 3.7402     | 4.1859     |  16.7 | 86.75
Neigh   | 0          | 0          | 0          |   0.0 |  0.00
Comm    | 0.012194   | 0.013197   | 0.014183   |   0.8 |  0.31
Output  | 2.5317e-05 | 5.0328e-05 | 0.00012508 |   0.0 |  0.00
Modify  | 0          | 0          | 0          |   0.0 |  0.00
Other   |            | 0.00451    |            |       |  0.10

Nlocal:         731.25 ave        1134 max         279 min
Histogram: 1 0 1 0 0 0 0 0 1 1
Nghost:           6900 ave        9526 max        4389 min
Histogram: 1 1 0 0 0 0 0 0 1 1
Neighs:         350442 ave      565947 max       59876 min
Histogram: 1 0 0 1 0 0 0 0 0 2

Total # of neighbors = 1401769
Ave neighs/atom = 479.23726
Ave special neighs/atom = 0.043076923
Neighbor list builds = 0
Dangerous builds = 0

write_data 001-dbt_3x3_${layer}L_${type}_lqeq_min.data
write_data 001-dbt_3x3_21L_${type}_lqeq_min.data
write_data 001-dbt_3x3_21L_fa_tet_half_qeq_lqeq_min.data
System init for write_data ...
PPPM initialization ...
  using 12-bit tables for long-range coulomb (../kspace.cpp:340)
  G vector (1/distance) = 0.29588697
  grid = 45 45 200
  stencil order = 5
  estimated absolute RMS force accuracy = 0.00034195275
  estimated relative force accuracy = 1.0297805e-06
  using double precision KISS FFT
  3d grid and FFT values/proc = 446148 301725
  generated 45 of 45 mixed pair_coeff terms from arithmetic mixing rule
Total wall time: 1:41:02
