LAMMPS data file via write_data, version 17 Feb 2022, timestep = 84564

4356 atoms
10 atom types
72 bonds
6 bond types
108 angles
6 angle types
0 dihedrals
2 dihedral types
18 impropers
2 improper types

0 25.44 xlo xhi
0 25.44 ylo yhi
-64.778423 32.908 zlo zhi

Masses

1 12.011
2 1.008
3 15.9994
4 15.9994
5 1.008
6 55.845
7 55.845
8 15.9994
9 15.9994
10 1.008

Pair Coeffs # lj/cut/coul/long

1 0.0988 3.31521
2 0.0161 2.4473
3 0.1463 3.04812
4 0.093 3.24287
5 0.0047 0.537925
6 9.0298e-07 4.9062
7 9.0298e-07 4.9062
8 0.1554 3.16554
9 0.1554 3.16554
10 0 0

Bond Coeffs # harmonic

1 361.8 1.105
2 652.57 1.218
3 383.13 1.351
4 563.51 0.973
5 554.135 1
6 0 2.08

Angle Coeffs # harmonic

1 51.617 106.55
2 65.93 123.65
3 65.262 109.49
4 115.745 122.1
5 118.817 130.25
6 30 109.47

Dihedral Coeffs # fourier

1 1 2.3 2 180
2 2 2.3 2 180 1.9 1 0

Improper Coeffs # cvff

1 10.5 -1 2
2 10.5 -1 2

Atoms # full

71 0 7 1.575 3.261178 4.45944 -51.68158699999998 0 0 0
78 0 6 1.05 6.441177999999998 5.519439999999998 -52.74158699999998 0 0 0
3 0 6 1.05 0.081178 3.39944 -52.74158699999998 0 0 0
74 0 6 1.05 4.321177999999998 7.639439999999998 -52.74158699999998 0 0 0
7 0 6 1.05 2.201178 1.2794399999999997 -52.74158699999998 0 0 0
6 0 8 -1.05 2.164343 3.362605 -52.778423000000004 0 0 0
75 0 8 -1.05 4.358012999999998 5.556274999999998 -52.778423000000004 0 0 0
70 0 8 -1.05 2.238013 7.676274999999998 -52.704751999999985 0 0 0
4 0 8 -1.05 0.118013 1.3162749999999996 -52.778423000000004 0 0 0
73 0 8 -1.05 4.284343 7.676274999999998 -50.658422 0 0 0
19 0 8 -1.05 6.478012999999998 3.4362749999999997 -52.704751999999985 0 0 0
79 0 8 -1.05 6.478012999999998 5.4826049999999995 -50.658422 0 0 0
77 0 8 -1.05 6.404341999999999 7.602603999999999 -52.778423000000004 0 0 0
5 0 7 1.575 1.1411780000000002 2.3394399999999997 -49.561587 0 0 0
76 0 7 1.575 5.381177999999999 6.579439999999999 -49.561587 0 0 0
11 0 6 1.05 4.321177999999998 1.2794399999999997 -50.62158699999998 0 0 0
68 0 6 1.05 2.201178 5.519439999999998 -48.501587 0 0 0
63 0 6 1.05 0.081178 7.639439999999998 -48.501587 0 0 0
62 0 7 1.575 0.081178 5.519439999999998 -50.62158699999998 0 0 0
12 0 7 1.575 4.321177999999998 3.39944 -48.501587 0 0 0
17 0 6 1.05 6.441177999999998 1.2794399999999997 -48.501587 0 0 0
18 0 7 1.575 6.441177999999998 3.39944 -50.62158699999998 0 0 0
69 0 7 1.575 2.201178 7.639439999999998 -50.62158699999998 0 0 0
15 0 8 -1.05 6.404341999999999 1.3162749999999996 -50.58475199999998 0 0 0
64 0 8 -1.05 0.118013 5.556274999999998 -48.538422 0 0 0
65 0 8 -1.05 0.118013 7.602603999999999 -50.58475199999998 0 0 0
16 0 8 -1.05 6.404341999999999 3.362605 -48.538422 0 0 0
14 0 8 -1.05 4.358012999999998 3.362605 -50.58475199999998 0 0 0
67 0 8 -1.05 2.164343 7.602603999999999 -48.538422 0 0 0
13 0 8 -1.05 4.358012999999998 1.3162749999999996 -48.538422 0 0 0
66 0 8 -1.05 2.164343 5.556274999999998 -50.58475199999998 0 0 0
8 0 8 -1.05 2.238013 1.242605000000001 -50.658422 0 0 0
10 0 8 -1.05 4.284343 1.242605000000001 -52.704751999999985 0 0 0
61 0 8 -1.05 0.04434300000000149 5.4826049999999995 -52.704751999999985 0 0 0
2 0 8 -1.05 0.04434300000000149 3.4362749999999997 -50.658422 0 0 0
20 0 7 1.575 7.5011779999999995 0.21943999999999877 -51.68158699999998 0 0 0
81 0 8 -1.05 8.524343 5.4826049999999995 -52.704751999999985 0 0 0
22 0 8 -1.05 8.524343 3.4362749999999997 -50.658422 0 0 0
91 0 7 1.575 11.741178000000001 4.45944 -51.68158699999998 0 0 0
23 0 7 1.575 8.561178 3.39944 -52.74158699999998 0 0 0
27 0 7 1.575 10.681178000000001 1.2794399999999997 -52.74158699999998 0 0 0
26 0 8 -1.05 10.644343000000001 3.362605 -52.778423000000004 0 0 0
90 0 8 -1.05 10.718013000000001 7.676274999999998 -52.704751999999985 0 0 0
24 0 8 -1.05 8.598013 1.3162749999999996 -52.778423000000004 0 0 0
25 0 7 1.575 9.621178 2.3394399999999997 -49.561587 0 0 0
88 0 7 1.575 10.681178000000001 5.519439999999998 -48.501587 0 0 0
83 0 7 1.575 8.561178 7.639439999999998 -48.501587 0 0 0
82 0 6 1.05 8.561178 5.519439999999998 -50.62158699999998 0 0 0
89 0 6 1.05 10.681178000000001 7.639439999999998 -50.62158699999998 0 0 0
84 0 8 -1.05 8.598013 5.556274999999998 -48.538422 0 0 0
85 0 8 -1.05 8.598013 7.602603999999999 -50.58475199999998 0 0 0
87 0 8 -1.05 10.644343000000001 7.602603999999999 -48.538422 0 0 0
86 0 8 -1.05 10.644343000000001 5.556274999999998 -50.58475199999998 0 0 0
28 0 8 -1.05 10.718013000000001 1.242605000000001 -50.658422 0 0 0
98 0 7 1.575 14.921177999999998 5.519439999999998 -52.74158699999998 0 0 0
94 0 7 1.575 12.801177999999998 7.639439999999998 -52.74158699999998 0 0 0
95 0 8 -1.05 12.838012999999998 5.556274999999998 -52.778423000000004 0 0 0
93 0 8 -1.05 12.764343 7.676274999999998 -50.658422 0 0 0
39 0 8 -1.05 14.958012999999998 3.4362749999999997 -52.704751999999985 0 0 0
99 0 8 -1.05 14.958012999999998 5.4826049999999995 -50.658422 0 0 0
97 0 8 -1.05 14.884342 7.602603999999999 -52.778423000000004 0 0 0
96 0 7 1.575 13.861177999999999 6.579439999999999 -49.561587 0 0 0
31 0 6 1.05 12.801177999999998 1.2794399999999997 -50.62158699999998 0 0 0
32 0 7 1.575 12.801177999999998 3.39944 -48.501587 0 0 0
37 0 7 1.575 14.921177999999998 1.2794399999999997 -48.501587 0 0 0
38 0 6 1.05 14.921177999999998 3.39944 -50.62158699999998 0 0 0
35 0 8 -1.05 14.884342 1.3162749999999996 -50.58475199999998 0 0 0
36 0 8 -1.05 14.884342 3.362605 -48.538422 0 0 0
34 0 8 -1.05 12.838012999999998 3.362605 -50.58475199999998 0 0 0
33 0 8 -1.05 12.838012999999998 1.3162749999999996 -48.538422 0 0 0
30 0 8 -1.05 12.764343 1.242605000000001 -52.704751999999985 0 0 0
40 0 7 1.575 15.981178 0.21943999999999877 -51.68158699999998 0 0 0
60 0 7 1.575 24.461178 0.21943999999999877 -51.68158699999998 0 0 0
50 0 8 -1.05 21.244343 1.242605000000001 -52.704751999999985 0 0 0
48 0 8 -1.05 19.198013 1.242605000000001 -50.658422 0 0 0
106 0 8 -1.05 19.124343 5.556274999999998 -50.58475199999998 0 0 0
53 0 8 -1.05 21.318013 1.3162749999999996 -48.538422 0 0 0
107 0 8 -1.05 19.124343 7.602603999999999 -48.538422 0 0 0
54 0 8 -1.05 21.318013 3.362605 -50.58475199999998 0 0 0
56 0 8 -1.05 23.364342 3.362605 -48.538422 0 0 0
105 0 8 -1.05 17.078013000000002 7.602603999999999 -50.58475199999998 0 0 0
104 0 8 -1.05 17.078013000000002 5.556274999999998 -48.538422 0 0 0
55 0 8 -1.05 23.364342 1.3162749999999996 -50.58475199999998 0 0 0
109 0 7 1.575 19.161178 7.639439999999998 -50.62158699999998 0 0 0
58 0 7 1.575 23.401177999999998 3.39944 -50.62158699999998 0 0 0
57 0 6 1.05 23.401177999999998 1.2794399999999997 -48.501587 0 0 0
52 0 6 1.05 21.281177999999997 3.39944 -48.501587 0 0 0
102 0 7 1.575 17.041178000000002 5.519439999999998 -50.62158699999998 0 0 0
103 0 6 1.05 17.041178000000002 7.639439999999998 -48.501587 0 0 0
108 0 6 1.05 19.161178 5.519439999999998 -48.501587 0 0 0
51 0 7 1.575 21.281177999999997 1.2794399999999997 -50.62158699999998 0 0 0
116 0 7 1.575 22.341178 6.579439999999999 -49.561587 0 0 0
45 0 7 1.575 18.101178 2.3394399999999997 -49.561587 0 0 0
117 0 8 -1.05 23.364342 7.602603999999999 -52.778423000000004 0 0 0
119 0 8 -1.05 23.438012999999998 5.4826049999999995 -50.658422 0 0 0
59 0 8 -1.05 23.438012999999998 3.4362749999999997 -52.704751999999985 0 0 0
113 0 8 -1.05 21.244343 7.676274999999998 -50.658422 0 0 0
44 0 8 -1.05 17.078013000000002 1.3162749999999996 -52.778423000000004 0 0 0
110 0 8 -1.05 19.198013 7.676274999999998 -52.704751999999985 0 0 0
115 0 8 -1.05 21.318013 5.556274999999998 -52.778423000000004 0 0 0
46 0 8 -1.05 19.124343 3.362605 -52.778423000000004 0 0 0
47 0 6 1.05 19.161178 1.2794399999999997 -52.74158699999998 0 0 0
114 0 6 1.05 21.281177999999997 7.639439999999998 -52.74158699999998 0 0 0
43 0 6 1.05 17.041178000000002 3.39944 -52.74158699999998 0 0 0
118 0 6 1.05 23.401177999999998 5.519439999999998 -52.74158699999998 0 0 0
111 0 7 1.575 20.221178000000002 4.45944 -51.68158699999998 0 0 0
42 0 8 -1.05 17.004343 3.4362749999999997 -50.658422 0 0 0
101 0 8 -1.05 17.004343 5.4826049999999995 -52.704751999999985 0 0 0
140 0 7 1.575 7.5011779999999995 8.69944 -51.68158699999998 0 0 0
128 0 8 -1.05 2.238013 9.722605 -50.658422 0 0 0
130 0 8 -1.05 4.284343 9.722605 -52.704751999999985 0 0 0
123 0 7 1.575 0.081178 11.87944 -52.74158699999998 0 0 0
127 0 6 1.05 2.201178 9.75944 -52.74158699999998 0 0 0
126 0 8 -1.05 2.164343 11.842605 -52.778423000000004 0 0 0
124 0 8 -1.05 0.118013 9.796275 -52.778423000000004 0 0 0
139 0 8 -1.05 6.478012999999998 11.916275 -52.704751999999985 0 0 0
125 0 7 1.575 1.1411780000000002 10.81944 -49.561587 0 0 0
131 0 7 1.575 4.321177999999998 9.75944 -50.62158699999998 0 0 0
132 0 7 1.575 4.321177999999998 11.87944 -48.501587 0 0 0
137 0 6 1.05 6.441177999999998 9.75944 -48.501587 0 0 0
138 0 6 1.05 6.441177999999998 11.87944 -50.62158699999998 0 0 0
135 0 8 -1.05 6.404341999999999 9.796275 -50.58475199999998 0 0 0
136 0 8 -1.05 6.404341999999999 11.842605 -48.538422 0 0 0
134 0 8 -1.05 4.358012999999998 11.842605 -50.58475199999998 0 0 0
133 0 8 -1.05 4.358012999999998 9.796275 -48.538422 0 0 0
122 0 8 -1.05 0.04434300000000149 11.916275 -50.658422 0 0 0
191 0 7 1.575 3.261178 12.939440000000001 -51.68158699999998 0 0 0
198 0 7 1.575 6.441177999999998 13.999439999999998 -52.74158699999998 0 0 0
194 0 6 1.05 4.321177999999998 16.119439999999997 -52.74158699999998 0 0 0
195 0 8 -1.05 4.358012999999998 14.036274999999998 -52.778423000000004 0 0 0
190 0 8 -1.05 2.238013 16.156274999999997 -52.704751999999985 0 0 0
193 0 8 -1.05 4.284343 16.156274999999997 -50.658422 0 0 0
199 0 8 -1.05 6.478012999999998 13.962605 -50.658422 0 0 0
197 0 8 -1.05 6.404341999999999 16.082604 -52.778423000000004 0 0 0
196 0 7 1.575 5.381177999999999 15.059439999999999 -49.561587 0 0 0
188 0 6 1.05 2.201178 13.999439999999998 -48.501587 0 0 0
183 0 7 1.575 0.081178 16.119439999999997 -48.501587 0 0 0
182 0 6 1.05 0.081178 13.999439999999998 -50.62158699999998 0 0 0
189 0 7 1.575 2.201178 16.119439999999997 -50.62158699999998 0 0 0
184 0 8 -1.05 0.118013 14.036274999999998 -48.538422 0 0 0
185 0 8 -1.05 0.118013 16.082604 -50.58475199999998 0 0 0
187 0 8 -1.05 2.164343 16.082604 -48.538422 0 0 0
186 0 8 -1.05 2.164343 14.036274999999998 -50.58475199999998 0 0 0
181 0 8 -1.05 0.04434300000000149 13.962605 -52.704751999999985 0 0 0
142 0 8 -1.05 8.524343 11.916275 -50.658422 0 0 0
148 0 8 -1.05 10.718013000000001 9.722605 -50.658422 0 0 0
143 0 7 1.575 8.561178 11.87944 -52.74158699999998 0 0 0
147 0 7 1.575 10.681178000000001 9.75944 -52.74158699999998 0 0 0
146 0 8 -1.05 10.644343000000001 11.842605 -52.778423000000004 0 0 0
144 0 8 -1.05 8.598013 9.796275 -52.778423000000004 0 0 0
145 0 7 1.575 9.621178 10.81944 -49.561587 0 0 0
201 0 8 -1.05 8.524343 13.962605 -52.704751999999985 0 0 0
211 0 7 1.575 11.741178000000001 12.939440000000001 -51.68158699999998 0 0 0
210 0 8 -1.05 10.718013000000001 16.156274999999997 -52.704751999999985 0 0 0
208 0 7 1.575 10.681178000000001 13.999439999999998 -48.501587 0 0 0
203 0 6 1.05 8.561178 16.119439999999997 -48.501587 0 0 0
202 0 6 1.05 8.561178 13.999439999999998 -50.62158699999998 0 0 0
209 0 7 1.575 10.681178000000001 16.119439999999997 -50.62158699999998 0 0 0
204 0 8 -1.05 8.598013 14.036274999999998 -48.538422 0 0 0
205 0 8 -1.05 8.598013 16.082604 -50.58475199999998 0 0 0
207 0 8 -1.05 10.644343000000001 16.082604 -48.538422 0 0 0
206 0 8 -1.05 10.644343000000001 14.036274999999998 -50.58475199999998 0 0 0
160 0 7 1.575 15.981178 8.69944 -51.68158699999998 0 0 0
150 0 8 -1.05 12.764343 9.722605 -52.704751999999985 0 0 0
159 0 8 -1.05 14.958012999999998 11.916275 -52.704751999999985 0 0 0
151 0 6 1.05 12.801177999999998 9.75944 -50.62158699999998 0 0 0
152 0 7 1.575 12.801177999999998 11.87944 -48.501587 0 0 0
157 0 6 1.05 14.921177999999998 9.75944 -48.501587 0 0 0
158 0 7 1.575 14.921177999999998 11.87944 -50.62158699999998 0 0 0
155 0 8 -1.05 14.884342 9.796275 -50.58475199999998 0 0 0
156 0 8 -1.05 14.884342 11.842605 -48.538422 0 0 0
154 0 8 -1.05 12.838012999999998 11.842605 -50.58475199999998 0 0 0
153 0 8 -1.05 12.838012999999998 9.796275 -48.538422 0 0 0
218 0 6 1.05 14.921177999999998 13.999439999999998 -52.74158699999998 0 0 0
214 0 7 1.575 12.801177999999998 16.119439999999997 -52.74158699999998 0 0 0
215 0 8 -1.05 12.838012999999998 14.036274999999998 -52.778423000000004 0 0 0
213 0 8 -1.05 12.764343 16.156274999999997 -50.658422 0 0 0
219 0 8 -1.05 14.958012999999998 13.962605 -50.658422 0 0 0
217 0 8 -1.05 14.884342 16.082604 -52.778423000000004 0 0 0
216 0 7 1.575 13.861177999999999 15.059439999999999 -49.561587 0 0 0
173 0 8 -1.05 21.318013 9.796275 -48.538422 0 0 0
174 0 8 -1.05 21.318013 11.842605 -50.58475199999998 0 0 0
176 0 8 -1.05 23.364342 11.842605 -48.538422 0 0 0
175 0 8 -1.05 23.364342 9.796275 -50.58475199999998 0 0 0
178 0 6 1.05 23.401177999999998 11.87944 -50.62158699999998 0 0 0
177 0 7 1.575 23.401177999999998 9.75944 -48.501587 0 0 0
172 0 7 1.575 21.281177999999997 11.87944 -48.501587 0 0 0
171 0 6 1.05 21.281177999999997 9.75944 -50.62158699999998 0 0 0
165 0 7 1.575 18.101178 10.81944 -49.561587 0 0 0
179 0 8 -1.05 23.438012999999998 11.916275 -52.704751999999985 0 0 0
164 0 8 -1.05 17.078013000000002 9.796275 -52.778423000000004 0 0 0
166 0 8 -1.05 19.124343 11.842605 -52.778423000000004 0 0 0
167 0 7 1.575 19.161178 9.75944 -52.74158699999998 0 0 0
163 0 7 1.575 17.041178000000002 11.87944 -52.74158699999998 0 0 0
170 0 8 -1.05 21.244343 9.722605 -52.704751999999985 0 0 0
168 0 8 -1.05 19.198013 9.722605 -50.658422 0 0 0
162 0 8 -1.05 17.004343 11.916275 -50.658422 0 0 0
180 0 7 1.575 24.461178 8.69944 -51.68158699999998 0 0 0
226 0 8 -1.05 19.124343 14.036274999999998 -50.58475199999998 0 0 0
227 0 8 -1.05 19.124343 16.082604 -48.538422 0 0 0
225 0 8 -1.05 17.078013000000002 16.082604 -50.58475199999998 0 0 0
224 0 8 -1.05 17.078013000000002 14.036274999999998 -48.538422 0 0 0
229 0 7 1.575 19.161178 16.119439999999997 -50.62158699999998 0 0 0
222 0 6 1.05 17.041178000000002 13.999439999999998 -50.62158699999998 0 0 0
223 0 7 1.575 17.041178000000002 16.119439999999997 -48.501587 0 0 0
228 0 6 1.05 19.161178 13.999439999999998 -48.501587 0 0 0
236 0 7 1.575 22.341178 15.059439999999999 -49.561587 0 0 0
237 0 8 -1.05 23.364342 16.082604 -52.778423000000004 0 0 0
239 0 8 -1.05 23.438012999999998 13.962605 -50.658422 0 0 0
233 0 8 -1.05 21.244343 16.156274999999997 -50.658422 0 0 0
230 0 8 -1.05 19.198013 16.156274999999997 -52.704751999999985 0 0 0
235 0 8 -1.05 21.318013 14.036274999999998 -52.778423000000004 0 0 0
234 0 6 1.05 21.281177999999997 16.119439999999997 -52.74158699999998 0 0 0
238 0 7 1.575 23.401177999999998 13.999439999999998 -52.74158699999998 0 0 0
231 0 7 1.575 20.221178000000002 12.939440000000001 -51.68158699999998 0 0 0
221 0 8 -1.05 17.004343 13.962605 -52.704751999999985 0 0 0
260 0 7 1.575 7.5011779999999995 17.17944 -51.68158699999998 0 0 0
248 0 8 -1.05 2.238013 18.202605 -50.658422 0 0 0
250 0 8 -1.05 4.284343 18.202605 -52.704751999999985 0 0 0
311 0 7 1.575 3.261178 21.41944 -51.68158699999998 0 0 0
318 0 6 1.05 6.441177999999998 22.479439999999997 -52.74158699999998 0 0 0
243 0 7 1.575 0.081178 20.35944 -52.74158699999998 0 0 0
314 0 7 1.575 4.321177999999998 24.599439999999998 -52.74158699999998 0 0 0
247 0 7 1.575 2.201178 18.239440000000002 -52.74158699999998 0 0 0
246 0 8 -1.05 2.164343 20.322605 -52.778423000000004 0 0 0
315 0 8 -1.05 4.358012999999998 22.516275 -52.778423000000004 0 0 0
310 0 8 -1.05 2.238013 24.636274999999998 -52.704751999999985 0 0 0
244 0 8 -1.05 0.118013 18.276275000000002 -52.778423000000004 0 0 0
313 0 8 -1.05 4.284343 24.636274999999998 -50.658422 0 0 0
259 0 8 -1.05 6.478012999999998 20.396275 -52.704751999999985 0 0 0
319 0 8 -1.05 6.478012999999998 22.442605 -50.658422 0 0 0
317 0 8 -1.05 6.404341999999999 24.562604 -52.778423000000004 0 0 0
245 0 7 1.575 1.1411780000000002 19.29944 -49.561587 0 0 0
316 0 7 1.575 5.381177999999999 23.53944 -49.561587 0 0 0
251 0 6 1.05 4.321177999999998 18.239440000000002 -50.62158699999998 0 0 0
308 0 6 1.05 2.201178 22.479439999999997 -48.501587 0 0 0
303 0 6 1.05 0.081178 24.599439999999998 -48.501587 0 0 0
302 0 7 1.575 0.081178 22.479439999999997 -50.62158699999998 0 0 0
252 0 6 1.05 4.321177999999998 20.35944 -48.501587 0 0 0
257 0 7 1.575 6.441177999999998 18.239440000000002 -48.501587 0 0 0
258 0 7 1.575 6.441177999999998 20.35944 -50.62158699999998 0 0 0
309 0 7 1.575 2.201178 24.599439999999998 -50.62158699999998 0 0 0
255 0 8 -1.05 6.404341999999999 18.276275000000002 -50.58475199999998 0 0 0
304 0 8 -1.05 0.118013 22.516275 -48.538422 0 0 0
305 0 8 -1.05 0.118013 24.562604 -50.58475199999998 0 0 0
256 0 8 -1.05 6.404341999999999 20.322605 -48.538422 0 0 0
254 0 8 -1.05 4.358012999999998 20.322605 -50.58475199999998 0 0 0
307 0 8 -1.05 2.164343 24.562604 -48.538422 0 0 0
253 0 8 -1.05 4.358012999999998 18.276275000000002 -48.538422 0 0 0
306 0 8 -1.05 2.164343 22.516275 -50.58475199999998 0 0 0
301 0 8 -1.05 0.04434300000000149 22.442605 -52.704751999999985 0 0 0
242 0 8 -1.05 0.04434300000000149 20.396275 -50.658422 0 0 0
326 0 8 -1.05 10.644343000000001 22.516275 -50.58475199999998 0 0 0
327 0 8 -1.05 10.644343000000001 24.562604 -48.538422 0 0 0
325 0 8 -1.05 8.598013 24.562604 -50.58475199999998 0 0 0
324 0 8 -1.05 8.598013 22.516275 -48.538422 0 0 0
329 0 6 1.05 10.681178000000001 24.599439999999998 -50.62158699999998 0 0 0
322 0 6 1.05 8.561178 22.479439999999997 -50.62158699999998 0 0 0
323 0 7 1.575 8.561178 24.599439999999998 -48.501587 0 0 0
328 0 7 1.575 10.681178000000001 22.479439999999997 -48.501587 0 0 0
265 0 7 1.575 9.621178 19.29944 -49.561587 0 0 0
264 0 8 -1.05 8.598013 18.276275000000002 -52.778423000000004 0 0 0
330 0 8 -1.05 10.718013000000001 24.636274999999998 -52.704751999999985 0 0 0
266 0 8 -1.05 10.644343000000001 20.322605 -52.778423000000004 0 0 0
267 0 6 1.05 10.681178000000001 18.239440000000002 -52.74158699999998 0 0 0
263 0 7 1.575 8.561178 20.35944 -52.74158699999998 0 0 0
321 0 8 -1.05 8.524343 22.442605 -52.704751999999985 0 0 0
262 0 8 -1.05 8.524343 20.396275 -50.658422 0 0 0
268 0 8 -1.05 10.718013000000001 18.202605 -50.658422 0 0 0
331 0 7 1.575 11.741178000000001 21.41944 -51.68158699999998 0 0 0
280 0 7 1.575 15.981178 17.17944 -51.68158699999998 0 0 0
273 0 8 -1.05 12.838012999999998 18.276275000000002 -48.538422 0 0 0
274 0 8 -1.05 12.838012999999998 20.322605 -50.58475199999998 0 0 0
276 0 8 -1.05 14.884342 20.322605 -48.538422 0 0 0
275 0 8 -1.05 14.884342 18.276275000000002 -50.58475199999998 0 0 0
278 0 7 1.575 14.921177999999998 20.35944 -50.62158699999998 0 0 0
277 0 6 1.05 14.921177999999998 18.239440000000002 -48.501587 0 0 0
272 0 7 1.575 12.801177999999998 20.35944 -48.501587 0 0 0
271 0 6 1.05 12.801177999999998 18.239440000000002 -50.62158699999998 0 0 0
336 0 7 1.575 13.861177999999999 23.53944 -49.561587 0 0 0
337 0 8 -1.05 14.884342 24.562604 -52.778423000000004 0 0 0
339 0 8 -1.05 14.958012999999998 22.442605 -50.658422 0 0 0
279 0 8 -1.05 14.958012999999998 20.396275 -52.704751999999985 0 0 0
333 0 8 -1.05 12.764343 24.636274999999998 -50.658422 0 0 0
335 0 8 -1.05 12.838012999999998 22.516275 -52.778423000000004 0 0 0
334 0 7 1.575 12.801177999999998 24.599439999999998 -52.74158699999998 0 0 0
270 0 8 -1.05 12.764343 18.202605 -52.704751999999985 0 0 0
338 0 7 1.575 14.921177999999998 22.479439999999997 -52.74158699999998 0 0 0
346 0 8 -1.05 19.124343 22.516275 -50.58475199999998 0 0 0
293 0 8 -1.05 21.318013 18.276275000000002 -48.538422 0 0 0
347 0 8 -1.05 19.124343 24.562604 -48.538422 0 0 0
294 0 8 -1.05 21.318013 20.322605 -50.58475199999998 0 0 0
296 0 8 -1.05 23.364342 20.322605 -48.538422 0 0 0
345 0 8 -1.05 17.078013000000002 24.562604 -50.58475199999998 0 0 0
344 0 8 -1.05 17.078013000000002 22.516275 -48.538422 0 0 0
295 0 8 -1.05 23.364342 18.276275000000002 -50.58475199999998 0 0 0
349 0 7 1.575 19.161178 24.599439999999998 -50.62158699999998 0 0 0
298 0 6 1.05 23.401177999999998 20.35944 -50.62158699999998 0 0 0
297 0 6 1.05 23.401177999999998 18.239440000000002 -48.501587 0 0 0
292 0 7 1.575 21.281177999999997 20.35944 -48.501587 0 0 0
342 0 6 1.05 17.041178000000002 22.479439999999997 -50.62158699999998 0 0 0
343 0 7 1.575 17.041178000000002 24.599439999999998 -48.501587 0 0 0
348 0 6 1.05 19.161178 22.479439999999997 -48.501587 0 0 0
291 0 7 1.575 21.281177999999997 18.239440000000002 -50.62158699999998 0 0 0
356 0 7 1.575 22.341178 23.53944 -49.561587 0 0 0
285 0 7 1.575 18.101178 19.29944 -49.561587 0 0 0
357 0 8 -1.05 23.364342 24.562604 -52.778423000000004 0 0 0
359 0 8 -1.05 23.438012999999998 22.442605 -50.658422 0 0 0
299 0 8 -1.05 23.438012999999998 20.396275 -52.704751999999985 0 0 0
353 0 8 -1.05 21.244343 24.636274999999998 -50.658422 0 0 0
284 0 8 -1.05 17.078013000000002 18.276275000000002 -52.778423000000004 0 0 0
350 0 8 -1.05 19.198013 24.636274999999998 -52.704751999999985 0 0 0
355 0 8 -1.05 21.318013 22.516275 -52.778423000000004 0 0 0
286 0 8 -1.05 19.124343 20.322605 -52.778423000000004 0 0 0
287 0 6 1.05 19.161178 18.239440000000002 -52.74158699999998 0 0 0
354 0 6 1.05 21.281177999999997 24.599439999999998 -52.74158699999998 0 0 0
283 0 6 1.05 17.041178000000002 20.35944 -52.74158699999998 0 0 0
358 0 6 1.05 23.401177999999998 22.479439999999997 -52.74158699999998 0 0 0
351 0 7 1.575 20.221178000000002 21.41944 -51.68158699999998 0 0 0
290 0 8 -1.05 21.244343 18.202605 -52.704751999999985 0 0 0
288 0 8 -1.05 19.198013 18.202605 -50.658422 0 0 0
282 0 8 -1.05 17.004343 20.396275 -50.658422 0 0 0
341 0 8 -1.05 17.004343 22.442605 -52.704751999999985 0 0 0
300 0 7 1.575 24.461178 17.17944 -51.68158699999998 0 0 0
416 0 7 1.575 7.5011779999999995 4.45944 -47.441587 0 0 0
368 0 6 1.05 2.201178 3.39944 -46.381586999999996 0 0 0
415 0 6 1.05 6.441177999999998 7.639439999999998 -46.381586999999996 0 0 0
361 0 7 1.575 0.081178 1.2794399999999997 -46.381586999999996 0 0 0
408 0 7 1.575 4.321177999999998 5.519439999999998 -46.381586999999996 0 0 0
371 0 8 -1.05 4.284343 3.4362749999999997 -46.41842199999999 0 0 0
411 0 8 -1.05 4.358012999999998 7.602603999999999 -46.344752 0 0 0
80 0 8 -1.05 6.478012999999998 7.676274999999998 -48.464752000000004 0 0 0
72 0 8 -1.05 4.284343 5.4826049999999995 -48.464752000000004 0 0 0
365 0 8 -1.05 2.164343 1.3162749999999996 -46.344752 0 0 0
406 0 8 -1.05 2.238013 5.4826049999999995 -46.41842199999999 0 0 0
412 0 8 -1.05 6.404341999999999 5.556274999999998 -46.344752 0 0 0
364 0 8 -1.05 0.118013 3.362605 -46.344752 0 0 0
9 0 8 -1.05 2.238013 3.4362749999999997 -48.464752000000004 0 0 0
373 0 8 -1.05 6.478012999999998 1.242605000000001 -46.41842199999999 0 0 0
404 0 8 -1.05 0.04434300000000149 7.676274999999998 -46.41842199999999 0 0 0
1 0 8 -1.05 0.04434300000000149 1.242605000000001 -48.464752000000004 0 0 0
372 0 7 1.575 5.381177999999999 2.3394399999999997 -45.321586999999994 0 0 0
405 0 7 1.575 1.1411780000000002 6.579439999999999 -45.321586999999994 0 0 0
369 0 7 1.575 3.261178 0.21943999999999877 -47.441587 0 0 0
663 0 7 1.575 3.261178 4.45944 -43.20158699999999 0 0 0
414 0 6 1.05 6.441177999999998 5.519439999999998 -44.26158699999999 0 0 0
362 0 6 1.05 0.081178 3.39944 -44.26158699999999 0 0 0
409 0 7 1.575 4.321177999999998 7.639439999999998 -44.26158699999999 0 0 0
367 0 7 1.575 2.201178 1.2794399999999997 -44.26158699999999 0 0 0
366 0 8 -1.05 2.164343 3.362605 -44.298423000000014 0 0 0
410 0 8 -1.05 4.358012999999998 5.556274999999998 -44.298423000000014 0 0 0
407 0 8 -1.05 2.238013 7.676274999999998 -44.224751999999995 0 0 0
363 0 8 -1.05 0.118013 1.3162749999999996 -44.298423000000014 0 0 0
665 0 8 -1.05 4.284343 7.676274999999998 -42.17842200000001 0 0 0
374 0 8 -1.05 6.478012999999998 3.4362749999999997 -44.224751999999995 0 0 0
667 0 8 -1.05 6.478012999999998 5.4826049999999995 -42.17842200000001 0 0 0
413 0 8 -1.05 6.404341999999999 7.602603999999999 -44.298423000000014 0 0 0
615 0 7 1.575 1.1411780000000002 2.3394399999999997 -41.081586999999985 0 0 0
666 0 7 1.575 5.381177999999999 6.579439999999999 -41.081586999999985 0 0 0
618 0 7 1.575 4.321177999999998 1.2794399999999997 -42.14158699999999 0 0 0
655 0 6 1.05 0.081178 5.519439999999998 -42.14158699999999 0 0 0
625 0 6 1.05 6.441177999999998 3.39944 -42.14158699999999 0 0 0
662 0 7 1.575 2.201178 7.639439999999998 -42.14158699999999 0 0 0
622 0 8 -1.05 6.404341999999999 1.3162749999999996 -42.10475199999999 0 0 0
658 0 8 -1.05 0.118013 7.602603999999999 -42.10475199999999 0 0 0
621 0 8 -1.05 4.358012999999998 3.362605 -42.10475199999999 0 0 0
659 0 8 -1.05 2.164343 5.556274999999998 -42.10475199999999 0 0 0
616 0 8 -1.05 2.238013 1.242605000000001 -42.17842200000001 0 0 0
370 0 8 -1.05 4.284343 1.242605000000001 -44.224751999999995 0 0 0
403 0 8 -1.05 0.04434300000000149 5.4826049999999995 -44.224751999999995 0 0 0
614 0 8 -1.05 0.04434300000000149 3.4362749999999997 -42.17842200000001 0 0 0
626 0 7 1.575 7.5011779999999995 0.21943999999999877 -43.20158699999999 0 0 0
418 0 8 -1.05 8.524343 7.676274999999998 -46.41842199999999 0 0 0
21 0 8 -1.05 8.524343 1.242605000000001 -48.464752000000004 0 0 0
382 0 6 1.05 10.681178000000001 3.39944 -46.381586999999996 0 0 0
375 0 6 1.05 8.561178 1.2794399999999997 -46.381586999999996 0 0 0
379 0 8 -1.05 10.644343000000001 1.3162749999999996 -46.344752 0 0 0
420 0 8 -1.05 10.718013000000001 5.4826049999999995 -46.41842199999999 0 0 0
378 0 8 -1.05 8.598013 3.362605 -46.344752 0 0 0
29 0 8 -1.05 10.718013000000001 3.4362749999999997 -48.464752000000004 0 0 0
419 0 7 1.575 9.621178 6.579439999999999 -45.321586999999994 0 0 0
383 0 7 1.575 11.741178000000001 0.21943999999999877 -47.441587 0 0 0
417 0 8 -1.05 8.524343 5.4826049999999995 -44.224751999999995 0 0 0
628 0 8 -1.05 8.524343 3.4362749999999997 -42.17842200000001 0 0 0
677 0 7 1.575 11.741178000000001 4.45944 -43.20158699999999 0 0 0
376 0 7 1.575 8.561178 3.39944 -44.26158699999999 0 0 0
381 0 7 1.575 10.681178000000001 1.2794399999999997 -44.26158699999999 0 0 0
380 0 8 -1.05 10.644343000000001 3.362605 -44.298423000000014 0 0 0
421 0 8 -1.05 10.718013000000001 7.676274999999998 -44.224751999999995 0 0 0
377 0 8 -1.05 8.598013 1.3162749999999996 -44.298423000000014 0 0 0
629 0 7 1.575 9.621178 2.3394399999999997 -41.081586999999985 0 0 0
669 0 7 1.575 8.561178 5.519439999999998 -42.14158699999999 0 0 0
676 0 6 1.05 10.681178000000001 7.639439999999998 -42.14158699999999 0 0 0
672 0 8 -1.05 8.598013 7.602603999999999 -42.10475199999999 0 0 0
673 0 8 -1.05 10.644343000000001 5.556274999999998 -42.10475199999999 0 0 0
630 0 8 -1.05 10.718013000000001 1.242605000000001 -42.17842200000001 0 0 0
430 0 7 1.575 15.981178 4.45944 -47.441587 0 0 0
429 0 7 1.575 14.921177999999998 7.639439999999998 -46.381586999999996 0 0 0
422 0 6 1.05 12.801177999999998 5.519439999999998 -46.381586999999996 0 0 0
385 0 8 -1.05 12.764343 3.4362749999999997 -46.41842199999999 0 0 0
425 0 8 -1.05 12.838012999999998 7.602603999999999 -46.344752 0 0 0
100 0 8 -1.05 14.958012999999998 7.676274999999998 -48.464752000000004 0 0 0
92 0 8 -1.05 12.764343 5.4826049999999995 -48.464752000000004 0 0 0
426 0 8 -1.05 14.884342 5.556274999999998 -46.344752 0 0 0
387 0 8 -1.05 14.958012999999998 1.242605000000001 -46.41842199999999 0 0 0
386 0 7 1.575 13.861177999999999 2.3394399999999997 -45.321586999999994 0 0 0
428 0 6 1.05 14.921177999999998 5.519439999999998 -44.26158699999999 0 0 0
423 0 7 1.575 12.801177999999998 7.639439999999998 -44.26158699999999 0 0 0
424 0 8 -1.05 12.838012999999998 5.556274999999998 -44.298423000000014 0 0 0
679 0 8 -1.05 12.764343 7.676274999999998 -42.17842200000001 0 0 0
388 0 8 -1.05 14.958012999999998 3.4362749999999997 -44.224751999999995 0 0 0
681 0 8 -1.05 14.958012999999998 5.4826049999999995 -42.17842200000001 0 0 0
427 0 8 -1.05 14.884342 7.602603999999999 -44.298423000000014 0 0 0
680 0 7 1.575 13.861177999999999 6.579439999999999 -41.081586999999985 0 0 0
632 0 6 1.05 12.801177999999998 1.2794399999999997 -42.14158699999999 0 0 0
639 0 7 1.575 14.921177999999998 3.39944 -42.14158699999999 0 0 0
636 0 8 -1.05 14.884342 1.3162749999999996 -42.10475199999999 0 0 0
635 0 8 -1.05 12.838012999999998 3.362605 -42.10475199999999 0 0 0
384 0 8 -1.05 12.764343 1.242605000000001 -44.224751999999995 0 0 0
640 0 7 1.575 15.981178 0.21943999999999877 -43.20158699999999 0 0 0
397 0 7 1.575 20.221178000000002 0.21943999999999877 -47.441587 0 0 0
433 0 7 1.575 18.101178 6.579439999999999 -45.321586999999994 0 0 0
400 0 7 1.575 22.341178 2.3394399999999997 -45.321586999999994 0 0 0
401 0 8 -1.05 23.438012999999998 1.242605000000001 -46.41842199999999 0 0 0
49 0 8 -1.05 19.198013 3.4362749999999997 -48.464752000000004 0 0 0
392 0 8 -1.05 17.078013000000002 3.362605 -46.344752 0 0 0
440 0 8 -1.05 23.364342 5.556274999999998 -46.344752 0 0 0
434 0 8 -1.05 19.198013 5.4826049999999995 -46.41842199999999 0 0 0
393 0 8 -1.05 19.124343 1.3162749999999996 -46.344752 0 0 0
112 0 8 -1.05 21.244343 5.4826049999999995 -48.464752000000004 0 0 0
120 0 8 -1.05 23.438012999999998 7.676274999999998 -48.464752000000004 0 0 0
439 0 8 -1.05 21.318013 7.602603999999999 -46.344752 0 0 0
399 0 8 -1.05 21.244343 3.4362749999999997 -46.41842199999999 0 0 0
436 0 7 1.575 21.281177999999997 5.519439999999998 -46.381586999999996 0 0 0
389 0 6 1.05 17.041178000000002 1.2794399999999997 -46.381586999999996 0 0 0
443 0 6 1.05 23.401177999999998 7.639439999999998 -46.381586999999996 0 0 0
396 0 7 1.575 19.161178 3.39944 -46.381586999999996 0 0 0
444 0 7 1.575 24.461178 4.45944 -47.441587 0 0 0
41 0 8 -1.05 17.004343 1.242605000000001 -48.464752000000004 0 0 0
432 0 8 -1.05 17.004343 7.676274999999998 -46.41842199999999 0 0 0
654 0 7 1.575 24.461178 0.21943999999999877 -43.20158699999999 0 0 0
398 0 8 -1.05 21.244343 1.242605000000001 -44.224751999999995 0 0 0
644 0 8 -1.05 19.198013 1.242605000000001 -42.17842200000001 0 0 0
687 0 8 -1.05 19.124343 5.556274999999998 -42.10475199999999 0 0 0