LAMMPS data file via write_data, version 17 Feb 2022, timestep = 286

2925 atoms
10 atom types
36 bonds
6 bond types
54 angles
6 angle types
0 dihedrals
2 dihedral types
9 impropers
2 improper types

0 25.44 xlo xhi
0 25.44 ylo yhi
-41.458422 32.908 zlo zhi

Masses

1 12.011
2 1.008
3 15.9994
4 15.9994
5 1.008
6 55.845
7 55.845
8 15.9994
9 15.9994
10 1.008

Pair Coeffs # lj/cut/coul/long

1 0.0988 3.31521
2 0.0161 2.4473
3 0.1463 3.04812
4 0.093 3.24287
5 0.0047 0.537925
6 9.0298e-07 4.9062
7 9.0298e-07 4.9062
8 0.1554 3.16554
9 0.1554 3.16554
10 0 0

Bond Coeffs # harmonic

1 361.8 1.105
2 652.57 1.218
3 383.13 1.351
4 563.51 0.973
5 554.135 1
6 0 2.08

Angle Coeffs # harmonic

1 51.617 106.55
2 65.93 123.65
3 65.262 109.49
4 115.745 122.1
5 118.817 130.25
6 30 109.47

Dihedral Coeffs # fourier

1 1 2.3 2 180
2 2 2.3 2 180 1.9 1 0

Improper Coeffs # cvff

1 10.5 -1 2
2 10.5 -1 2

Atoms # full

9 0 7 1.575 2.320635384187535 3.448882688458523 -29.771018929118455 0 0 0
79 0 7 1.575 6.59258790559946 7.6823292704076 -29.728852931516016 0 0 0
2 0 7 1.575 0.1603182308672835 1.3439532138882646 -29.78881324289282 0 0 0
72 0 7 1.575 4.408647596145016 5.558017996771441 -29.707447371858443 0 0 0
12 0 8 -1.05 4.32603098432005 3.5721198135806524 -29.77873942323654 0 0 0
75 0 8 -1.05 4.49820977803181 7.616723410317067 -29.630554446452972 0 0 0
6 0 8 -1.05 2.117291887460592 1.4973359031579274 -29.895421394738232 0 0 0
68 0 8 -1.05 2.4412335794478137 5.462515145890276 -29.756987882169387 0 0 0
76 0 8 -1.05 6.323899679687763 5.772239898843442 -29.905926008868597 0 0 0
5 0 8 -1.05 0.33572267465181327 3.3280373052924235 -29.803879700401673 0 0 0
18 0 8 -1.05 6.896989609951516 1.0055172754481516 -29.666987918896577 0 0 0
62 0 8 -1.05 0.06951952575802679 7.938017164353501 -29.61953127690999 0 0 0
15 0 7 1.575 5.609627078201832 2.305361229724582 -29.044417100674554 0 0 0
65 0 7 1.575 1.1731652166427935 6.560075067840055 -28.826095594740725 0 0 0
78 0 6 1.05 6.698041777404566 5.424738882021213 -27.935862873991276 0 0 0
3 0 6 1.05 0.12513822025252017 3.468947300319608 -27.809845700719237 0 0 0
73 0 6 1.05 4.56255971467767 7.5343667578458025 -27.579759225074277 0 0 0
8 0 6 1.05 2.2926058045608104 1.3575230185675606 -27.891285162056313 0 0 0
7 0 8 -1.05 2.2292033500726762 3.4159895721388462 -27.735978239954154 0 0 0
74 0 8 -1.05 4.561448614133775 5.509092096969142 -27.691913901986226 0 0 0
69 0 8 -1.05 2.382504502113324 7.628426597396022 -27.644142141603 0 0 0
4 0 8 -1.05 0.2270770616373659 1.3761646560291525 -27.73483572735462 0 0 0
19 0 8 -1.05 6.712521913569778 3.355647880140328 -27.69436820567368 0 0 0
77 0 8 -1.05 6.602821700985544 7.507003614247561 -27.71772978598675 0 0 0
11 0 8 -1.05 4.350655966116466 1.2599796526370364 -27.938771752489803 0 0 0
61 0 8 -1.05 0.14219962876941816 5.5604259858081235 -27.51434532588046 0 0 0
82 0 8 -1.05 8.575394954047846 7.761536720283914 -29.67714740402708 0 0 0
29 0 7 1.575 10.960872036458913 3.4987659351063334 -29.702879079541027 0 0 0
22 0 6 1.05 8.809386053412348 1.4751097400083673 -29.90374106361853 0 0 0
26 0 8 -1.05 10.81023855781961 1.5262095601159515 -29.63714663008499 0 0 0
88 0 8 -1.05 11.05970481866285 5.450428364505165 -29.69371138427933 0 0 0
25 0 8 -1.05 9.000181800707235 3.455287933376657 -29.649046270926455 0 0 0
81 0 8 -1.05 8.78588222193216 5.446554358924958 -27.604996236714882 0 0 0
85 0 7 1.575 9.81213620531394 6.581076983008961 -28.84778638658509 0 0 0
23 0 7 1.575 8.750800014464302 3.4105440535099305 -27.72735944046881 0 0 0
28 0 7 1.575 10.967521594368318 1.2964572522341327 -27.706139237102327 0 0 0
27 0 8 -1.05 10.826061368163268 3.3427118687959863 -27.582092206116357 0 0 0
89 0 8 -1.05 10.902783736863931 7.75250776925038 -27.590883005205473 0 0 0
24 0 8 -1.05 8.953740180005806 1.4060746876113224 -27.64624408777671 0 0 0
99 0 6 1.05 15.153413028375718 7.64134251377437 -30.092150796273998 0 0 0
92 0 6 1.05 13.071904668816428 5.540812560195831 -30.124553802672537 0 0 0
32 0 8 -1.05 12.892335618705044 3.5341543573565053 -29.701645128076798 0 0 0
95 0 8 -1.05 13.118231920299545 7.602451931978517 -29.862368399619406 0 0 0
96 0 8 -1.05 14.97194977015753 5.743510233234689 -29.46617537761012 0 0 0
38 0 8 -1.05 15.337159496764139 1.24474292221166 -29.643482111944145 0 0 0
35 0 7 1.575 14.107144670413392 2.398143390623597 -28.803900947905017 0 0 0
98 0 7 1.575 15.046907720655879 5.54743797270383 -27.576884262978542 0 0 0
93 0 7 1.575 12.923889893667644 7.649593361973529 -27.98586740989605 0 0 0
94 0 8 -1.05 13.024744118141204 5.809326802322959 -27.20159546395492 0 0 0
39 0 8 -1.05 15.029938570185443 3.544422229969529 -27.497148996544954 0 0 0
97 0 8 -1.05 14.83505246200495 7.638734024746425 -27.30759409508939 0 0 0
31 0 8 -1.05 13.011043523905997 1.251912290824504 -27.54030020256069 0 0 0
51 0 8 -1.05 21.47837170043579 1.27392082436223 -27.445625390572932 0 0 0
117 0 8 -1.05 23.436850639587504 7.601698506459068 -27.677831178084766 0 0 0
59 0 8 -1.05 23.487245950295247 3.4015151387239606 -27.48653131507943 0 0 0
44 0 8 -1.05 17.317952660037097 1.3611561596386759 -27.56547249173556 0 0 0
109 0 8 -1.05 19.201915433616016 7.71167413818955 -27.457130414848837 0 0 0
114 0 8 -1.05 21.452292961671375 5.586283323616273 -27.63276497972399 0 0 0
47 0 8 -1.05 19.26754240191739 3.3899305843625642 -27.603107699302054 0 0 0
48 0 6 1.05 19.392238006804185 1.2490390175869013 -27.709955275465834 0 0 0
113 0 6 1.05 21.355485089234335 7.59890632271255 -27.591945526577433 0 0 0
43 0 6 1.05 17.13774034870688 3.444136159565022 -27.69607344628888 0 0 0
118 0 6 1.05 23.5305755730183 5.449975486338981 -27.802475862874807 0 0 0
105 0 7 1.575 18.170818231801317 6.537762707142931 -28.762073198152578 0 0 0
55 0 7 1.575 22.428728758013346 2.347653987594133 -28.80991893093857 0 0 0
101 0 8 -1.05 17.100569330493602 5.597514432038991 -27.420967205264567 0 0 0
58 0 8 -1.05 23.623149968111353 1.1745815651116756 -29.721883317325037 0 0 0
45 0 8 -1.05 17.385391154000857 3.2888757360296963 -29.68648018868219 0 0 0
116 0 8 -1.05 23.30525058769328 5.7765887901253565 -29.793638241513932 0 0 0
108 0 8 -1.05 19.42514481795121 5.4386392342116485 -29.666734861125054 0 0 0
46 0 8 -1.05 19.239795930903064 1.4950123749705868 -29.693098356780684 0 0 0
115 0 8 -1.05 21.464615785345014 7.64947827478868 -29.681634034962098 0 0 0
52 0 8 -1.05 21.29606361330686 3.607420094243747 -29.683128557757566 0 0 0
112 0 7 1.575 21.37115238675223 5.584470021098738 -29.67252713708822 0 0 0
42 0 7 1.575 17.27702571496079 1.307076511541994 -29.64138186505421 0 0 0
119 0 7 1.575 23.542586556835726 7.668453836398364 -29.66048622308847 0 0 0
49 0 7 1.575 19.324790207170278 3.44671812601933 -29.64216177777654 0 0 0
102 0 8 -1.05 17.198337314436703 7.791228874306337 -29.78716714545787 0 0 0
138 0 8 -1.05 6.688006931111829 9.630904893229875 -29.931646455576935 0 0 0
129 0 7 1.575 2.600127798100713 12.24413620959596 -29.397160201765335 0 0 0
122 0 6 1.05 25.23533437957869 9.88289693284382 -30.21722250236302 -1 0 0
132 0 8 -1.05 4.50053909951409 13.08537350839329 -28.654419892250736 0 0 0
126 0 8 -1.05 3.695057832836655 10.756331679153122 -29.920632307737215 0 0 0
125 0 8 -1.05 0.8463485018366572 11.394356893846505 -29.535938476815744 0 0 0
131 0 8 -1.05 4.626070631417069 9.655266012102615 -27.57335322486947 0 0 0
135 0 7 1.575 5.402654520798622 10.71661060437292 -29.042265670379745 0 0 0
123 0 7 1.575 0.43236516592514923 11.875069324927615 -27.67924238166332 0 0 0
128 0 6 1.05 3.1299704111152207 9.034422309747768 -29.027867744439916 0 0 0
127 0 8 -1.05 2.440047078039531 11.908339164159372 -27.410119391419453 0 0 0
124 0 8 -1.05 0.28268426704376526 10.05938875342828 -26.907149644632455 0 0 0
139 0 8 -1.05 6.736156013797979 11.798213704401197 -28.010483211077435 0 0 0
199 0 6 1.05 6.203614761781762 16.492505621107675 -30.970296875149383 0 0 0
192 0 6 1.05 4.341721383614515 14.590397874569382 -30.16995140097477 0 0 0
195 0 8 -1.05 4.244662242074914 16.230286885384388 -31.297771235580402 0 0 0
188 0 8 -1.05 2.4203953559198057 14.040875007071985 -30.130629554243313 0 0 0
196 0 8 -1.05 6.257180936660416 15.016398898888655 -29.62912625269044 0 0 0
182 0 8 -1.05 0.32345586132449233 16.304825922998393 -30.433526734430142 0 0 0
185 0 7 1.575 1.158597491538326 15.129365880151965 -29.184339544880213 0 0 0
198 0 7 1.575 6.3982069638558094 13.742442525185439 -28.24381287477971 0 0 0
193 0 6 1.05 2.3255266945768542 16.752841907077798 -31.282752593394488 0 0 0
194 0 8 -1.05 5.631979074905274 14.043946148917572 -26.4516169768828 0 0 0
189 0 8 -1.05 2.2490716331856637 16.239372524886996 -27.97202708637022 0 0 0
197 0 8 -1.05 7.6972026401872755 15.572241649565173 -25.677354650357405 0 0 0
181 0 8 -1.05 0.619156942289869 13.825964104903596 -27.931436971754263 0 0 0
149 0 7 1.575 10.937334015512214 11.893293378475464 -30.009154686337624 0 0 0
142 0 6 1.05 8.739530112655455 9.700578423514019 -30.27864893991126 0 0 0
146 0 8 -1.05 10.634835743101586 10.030644914378941 -29.495544348633302 0 0 0
145 0 8 -1.05 8.958455142075392 11.863239267010913 -30.077455883858427 0 0 0
143 0 7 1.575 8.700400976728625 11.798427187556868 -28.19586615328101 0 0 0
148 0 7 1.575 10.800200624655952 9.76505509733485 -27.600009644372026 0 0 0
147 0 8 -1.05 10.586555338228065 11.95727471838978 -27.516952478579523 0 0 0
144 0 8 -1.05 8.779249368090614 10.03033584942118 -27.295522228009304 0 0 0
202 0 8 -1.05 9.43433811209628 16.380729040806795 -30.137273081103995 0 0 0
208 0 8 -1.05 10.98918884339116 13.845843817034316 -29.845428426028665 0 0 0
201 0 8 -1.05 8.45664944062213 13.818282980044827 -27.91854730033614 0 0 0
205 0 7 1.575 9.7360181857827 14.953542029652914 -28.929065888508497 0 0 0
209 0 8 -1.05 10.820851905047997 15.75807865397063 -27.481737364056894 0 0 0
158 0 8 -1.05 15.303882702311784 9.670253628534855 -29.717927981911515 0 0 0
152 0 8 -1.05 12.83336167671548 11.923046187044868 -29.639427343704096 0 0 0
151 0 8 -1.05 12.83869659740487 9.682153674093618 -27.605450574440397 0 0 0
155 0 7 1.575 14.03316530672119 10.71929822119409 -28.807914470353452 0 0 0
159 0 8 -1.05 15.10767678523694 11.828106202021203 -27.500516999085075 0 0 0
219 0 7 1.575 14.983863140673272 16.332495135665983 -29.680878973030833 0 0 0
212 0 6 1.05 13.081162723091097 13.942428522431108 -29.72877305339769 0 0 0
215 0 8 -1.05 12.997664256412696 16.088611138548913 -29.691799083446035 0 0 0
216 0 8 -1.05 15.066504628149163 14.379655959098187 -29.720036800430243 0 0 0
218 0 6 1.05 15.126755516339802 13.985112357250383 -27.740530402024262 0 0 0
213 0 7 1.575 12.932358429453064 16.130781467870904 -27.705439703497802 0 0 0
214 0 8 -1.05 13.069925584770484 14.143187047886569 -27.542406057839944 0 0 0
217 0 8 -1.05 15.058331602652688 16.106167558249595 -27.63717110517325 0 0 0
179 0 8 -1.05 23.9189959021495 12.184123408890585 -27.521501966358347 0 0 0
164 0 8 -1.05 17.259832356569955 9.8331334186185 -27.623409290512466 0 0 0
167 0 8 -1.05 19.088447642219208 11.767316735863766 -27.56538262797188 0 0 0
168 0 7 1.575 19.272821595943558 9.770922257661535 -27.59439260944484 0 0 0
163 0 7 1.575 17.093309931143896 11.850616448286486 -27.75136862737825 0 0 0
175 0 7 1.575 21.34622643682802 9.693034308334832 -29.68771892993868 0 0 0
171 0 8 -1.05 21.229844026921604 9.637819198924443 -27.69817169634141 0 0 0
165 0 8 -1.05 17.32977467537337 11.657458641347816 -29.669713461893696 0 0 0
166 0 8 -1.05 19.293639030072065 9.814518887362988 -29.60697785319178 0 0 0
172 0 8 -1.05 21.33840952009072 11.678088569620535 -29.80792012168643 0 0 0
162 0 7 1.575 17.254952407972613 9.706950865968285 -29.759639169104286 0 0 0
169 0 6 1.05 19.328137894693086 11.903044997601187 -29.8139364798306 0 0 0
178 0 8 -1.05 23.275198177414435 9.54340573518894 -30.10535268033629 0 0 0
237 0 8 -1.05 23.75180979453626 15.671296160575363 -27.182729424731484 0 0 0
229 0 8 -1.05 19.04246995652941 16.02220482535831 -27.67777897795387 0 0 0
234 0 8 -1.05 21.48844407038372 13.720490512638502 -27.550133972824234 0 0 0
233 0 6 1.05 21.09963422174078 18.077112558332765 -30.60159350940737 0 0 0
238 0 7 1.575 22.619736687638714 12.726535338603936 -28.818002532916278 0 0 0
225 0 7 1.575 17.920712108772204 15.102438610186518 -29.05012049915343 0 0 0
221 0 8 -1.05 17.27206110250603 13.849596317172137 -27.63589624676875 0 0 0
236 0 8 -1.05 22.989966191889742 14.159100400242195 -30.01207861974654 0 0 0
228 0 8 -1.05 19.407180724229903 13.933024969230567 -29.467868241300735 0 0 0
235 0 8 -1.05 21.534874549359753 16.268992989482427 -31.18353828095226 0 0 0
232 0 6 1.05 21.076833426289813 14.473111753198458 -30.550542439778578 0 0 0
239 0 6 1.05 23.47849604770679 16.079040546691346 -30.481980297563513 0 0 0
222 0 8 -1.05 16.943233570064102 16.462145574466074 -29.928343866559853 0 0 0
258 0 8 -1.05 6.989562316443187 18.159839540983622 -30.201022630945747 0 0 0
249 0 6 1.05 2.261656117565842 20.432611898038413 -30.201889818098856 0 0 0
319 0 6 1.05 6.738562988468967 24.425304150515384 -30.096007687678693 0 0 0
242 0 6 1.05 25.433365047888344 18.306145208031232 -30.040874712822713 -1 0 0
312 0 6 1.05 4.505620421252164 22.46755946757648 -30.50636523989124 0 0 0
252 0 8 -1.05 4.363900883238568 20.47867089333049 -29.63106283494873 0 0 0
315 0 8 -1.05 4.730371515763936 24.438571032802418 -30.17286783886459 0 0 0
246 0 8 -1.05 2.200244722164612 18.351933084006777 -30.107584280335374 0 0 0
308 0 8 -1.05 2.499906236125183 22.41472371383728 -30.027090093148026 0 0 0
316 0 8 -1.05 6.53923808632172 22.436866107494115 -30.49041902510843 0 0 0
245 0 8 -1.05 0.2676214262554877 20.272912128546423 -29.8162322122601 0 0 0
302 0 8 -1.05 0.043897862830791785 24.784961498671166 -29.83793320136887 0 0 0
251 0 8 -1.05 4.404160710957269 18.257917416617058 -27.970246700705708 0 0 0
255 0 7 1.575 5.649842918213983 19.113647442419918 -29.23065494773382 0 0 0
305 0 7 1.575 1.3020079848049153 23.549386376437127 -29.10465403085825 0 0 0
318 0 6 1.05 7.628268969443618 21.596114683459017 -29.14145157296203 0 0 0
243 0 7 1.575 0.3145728477969988 20.43684050695155 -27.9037501217317 0 0 0
313 0 7 1.575 4.308691273998383 24.75406027912169 -28.384352774218566 0 0 0
248 0 7 1.575 2.3936312445461394 18.212242890459525 -28.179248593979576 0 0 0
247 0 8 -1.05 2.2668670982226633 20.159558442989205 -27.780223526093806 0 0 0
314 0 8 -1.05 4.33994670628831 22.79916794434266 -27.572569779543834 0 0 0
309 0 8 -1.05 2.3781867805658905 24.683960366393823 -27.847186160100875 0 0 0
244 0 8 -1.05 0.3488334994934591 18.327494079155393 -27.84734851685226 0 0 0
259 0 8 -1.05 6.5337275978527405 20.276440466792817 -27.91800121194913 0 0 0
317 0 8 -1.05 6.088007057302951 24.708081311359607 -27.395772711580616 0 0 0
301 0 8 -1.05 0.29926722666471456 22.47302643959953 -27.738300176274297 0 0 0
322 0 8 -1.05 8.457038673341726 24.054742737992537 -28.73921318544151 0 0 0
269 0 6 1.05 10.970378180661296 20.555744149207563 -30.126584642314935 0 0 0
262 0 7 1.575 8.943497972884874 18.282925145952948 -29.93405398642676 0 0 0
264 0 8 -1.05 8.858158385989961 18.12298822058599 -27.908682757323007 0 0 0
266 0 8 -1.05 10.775074638854415 18.645721359068812 -30.690240292619578 0 0 0
329 0 8 -1.05 11.126233810497547 24.722054766641318 -27.658929645572186 0 0 0
328 0 8 -1.05 11.103711711815171 22.53319647598841 -30.275692700185527 0 0 0
267 0 8 -1.05 11.035974389657788 19.56025008847811 -26.18607786684802 0 0 0
268 0 6 1.05 11.380782969330818 16.777296374319377 -30.66648491314761 0 0 0
265 0 8 -1.05 9.05482129126776 20.22403968670707 -29.428734700483908 0 0 0
263 0 7 1.575 9.637238332585651 19.912119889030752 -27.564973795222876 0 0 0
321 0 8 -1.05 9.99227994331009 21.873059801727425 -27.569566007506666 0 0 0
325 0 7 1.575 10.263301835771726 23.402847823774742 -28.80924132880986 0 0 0
278 0 8 -1.05 15.085678255386778 18.327700490038325 -29.68988039610402 0 0 0
339 0 6 1.05 15.212349374568907 24.651543387748053 -29.824441197555213 0 0 0
332 0 6 1.05 13.038245321372221 22.898493495190596 -30.533206011787737 0 0 0
337 0 8 -1.05 15.046544502855511 24.580990768718973 -27.483523074017572 0 0 0
272 0 8 -1.05 12.303434724364987 20.572891332993255 -28.504269260119163 0 0 0
335 0 8 -1.05 13.170174071785416 24.707654142200965 -29.78610728104799 0 0 0
279 0 8 -1.05 15.102556604825757 20.533194702788496 -27.423035069004232 0 0 0
336 0 8 -1.05 14.721306959334663 22.56034156167502 -29.508753559836034 0 0 0
334 0 8 -1.05 13.125219491164156 22.911299045144336 -27.006508850001946 0 0 0
333 0 7 1.575 13.110993112095233 24.723872001775675 -27.898933572270543 0 0 0
271 0 8 -1.05 13.143128023979516 18.05566895958607 -27.65426752636119 0 0 0
275 0 7 1.575 13.937359759265732 19.524253202793517 -28.65089389383213 0 0 0
338 0 7 1.575 15.101219085067772 22.561335057600775 -27.62003208839339 0 0 0
357 0 8 -1.05 23.507414251907004 24.505944093068386 -27.708466614790343 0 0 0
299 0 8 -1.05 23.774033822987455 20.433293969582568 -27.627948454013797 0 0 0
284 0 8 -1.05 17.245660196977806 18.319570198951705 -27.724030511765285 0 0 0
349 0 8 -1.05 19.371415964809348 24.565568729928614 -27.436207271169888 0 0 0
354 0 8 -1.05 21.564007278404038 22.38315590588675 -27.73308395405185 0 0 0
287 0 8 -1.05 19.279322602997407 20.347005701655277 -27.66429094988315 0 0 0
288 0 6 1.05 19.361575300407438 18.206002228230474 -27.83764121437345 0 0 0
353 0 6 1.05 21.412154408816374 24.629756478077116 -27.770614934467616 0 0 0
283 0 6 1.05 17.188786853194934 20.48048212735146 -27.703590536695653 0 0 0
358 0 6 1.05 23.640944591657608 22.47158268789796 -27.9261771792446 0 0 0
345 0 7 1.575 18.326426638465033 23.578233599762942 -28.78233180518662 0 0 0
295 0 7 1.575 22.642939217700757 19.506796902308626 -28.85871724923218 0 0 0
291 0 8 -1.05 21.443902812911237 18.504484572943817 -27.680326775104692 0 0 0
341 0 8 -1.05 17.133074793036357 22.562627273625786 -27.56421563678875 0 0 0
285 0 8 -1.05 17.362238378423566 20.298405972652997 -29.7309824225561 0 0 0
356 0 8 -1.05 23.376736416438636 22.63483826478686 -29.899119754551513 0 0 0
348 0 8 -1.05 19.4911480783905 22.36559970082675 -29.700152684149604 0 0 0
286 0 8 -1.05 19.212428611598302 18.457754118386738 -29.88436265341855 0 0 0
355 0 8 -1.05 21.566243731075705 24.4339675056534 -29.754103109088177 0 0 0
292 0 8 -1.05 21.282226301124847 20.378464776347048 -29.92351235516557 0 0 0
352 0 7 1.575 21.435770082542412 22.48166864182833 -29.77885788340297 0 0 0
282 0 7 1.575 17.112103555548202 18.39498998398668 -29.728902378756338 0 0 0
359 0 7 1.575 23.516573742335027 24.629318668426965 -29.776835748166455 0 0 0
289 0 7 1.575 19.293031239193823 20.445989778784522 -29.662259624253423 0 0 0
298 0 8 -1.05 23.367988930784065 18.074142346969722 -29.8862654053871 0 0 0
342 0 8 -1.05 17.223636675493744 24.784413647258944 -29.721350352926148 0 0 0
70 0 7 1.575 3.401905632543756 4.426423353465806 -26.651890753697632 0 0 0
71 0 8 -1.05 4.365234764162608 7.639787151506015 -25.477491574175236 0 0 0
80 0 8 -1.05 6.6633580284186165 5.305973331744734 -25.487240851091606 0 0 0
364 0 7 1.575 1.288013583165625 2.2872878288791707 -24.610516121193754 0 0 0
416 0 7 1.575 7.586549480115288 4.31752316134411 -22.338687431819057 0 0 0
412 0 7 1.575 5.552739322719981 6.485687345114816 -24.512560372774246 0 0 0
13 0 6 1.05 4.5257106473173945 1.2324785370225995 -25.953447579302484 0 0 0
366 0 6 1.05 2.223324162674349 3.467174656745923 -21.49474644613038 0 0 0
414 0 6 1.05 6.580890378165219 7.532100572453172 -21.27517764525135 0 0 0
407 0 6 1.05 2.351229021374565 5.453820288006392 -23.516117108685542 0 0 0
404 0 6 1.05 0.24098644071218833 7.606281932158085 -23.41821836786214 0 0 0
63 0 7 1.575 0.21083962921771113 5.5130520889180525 -25.55441022604246 0 0 0
370 0 7 1.575 4.4473844997719425 3.2715948736189198 -23.534336093362104 0 0 0
373 0 6 1.05 6.6517003513288655 1.2503727412828654 -23.584992474679325 0 0 0
362 0 7 1.575 0.24755099790506865 1.402236773247489 -21.308511887330965 0 0 0
17 0 7 1.575 6.594174316212216 3.3325016690633205 -25.727726838859443 0 0 0
67 0 7 1.575 2.323251949815846 7.6166527316936605 -25.662117285067268 0 0 0
410 0 7 1.575 4.484402490996415 5.380654597222585 -21.359639865861162 0 0 0
16 0 8 -1.05 6.499992176397538 1.3926491683710882 -25.53252118321466 0 0 0
369 0 8 -1.05 4.319628691247833 3.4082433593036656 -21.392672071305967 0 0 0
411 0 8 -1.05 4.457009160984959 7.456146581882493 -21.229193837164914 0 0 0
405 0 8 -1.05 0.27722390750562337 5.5382608777883515 -23.407692915102274 0 0 0
415 0 8 -1.05 6.684859439470381 7.5419231249934855 -23.295631323833305 0 0 0
64 0 8 -1.05 0.2908228313744199 7.555413318060156 -25.469513187745626 0 0 0
409 0 8 -1.05 4.46892805050255 5.352727389644963 -23.324836862017616 0 0 0
365 0 8 -1.05 2.3163151950639875 1.502244184123659 -20.937539477223005 0 0 0
372 0 8 -1.05 6.433279696602164 3.27266234979285 -23.431954710266208 0 0 0
408 0 8 -1.05 2.4963728908046265 5.429356173605481 -21.132883242719778 0 0 0
413 0 8 -1.05 6.470550863404929 5.4320938690691065 -21.18425671661376 0 0 0
14 0 8 -1.05 4.534840883488811 3.3395638743965566 -25.485275304070868 0 0 0
406 0 8 -1.05 2.29978164632002 7.475087698686655 -23.436930671750577 0 0 0
371 0 8 -1.05 4.561404207360277 1.2133911932646537 -23.075795473773383 0 0 0
363 0 8 -1.05 0.19640848840675854 3.381230580414159 -21.103317905572588 0 0 0
66 0 8 -1.05 2.2567516211860945 5.584380030626407 -25.54831524883506 0 0 0
367 0 8 -1.05 2.4554092740885776 3.364000517740263 -23.477620134685207 0 0 0
10 0 8 -1.05 2.3874693533781977 1.1369129212583144 -25.653378892297265 0 0 0
374 0 8 -1.05 6.3511027568710565 1.0694950254150395 -20.917958167069813 0 0 0
1 0 8 -1.05 0.09568242242861241 3.515553841359765 -25.464652986004285 0 0 0
403 0 8 -1.05 0.3033159224257781 7.823383175547826 -21.176806981617066 0 0 0
361 0 8 -1.05 0.25711919744357536 1.3279161008485818 -23.246569235250934 0 0 0
622 0 7 1.575 4.40932408059808 1.492942534362547 -21.153660280864376 0 0 0
658 0 7 1.575 1.3031369298059123 6.555542643991787 -20.183373472406238 0 0 0
20 0 7 1.575 7.901777881378093 25.289146834577014 -27.281133859693586 0 -1 0
368 0 7 1.575 4.390079245540845 24.6612662946952 -23.362376944628465 0 -1 0
21 0 8 -1.05 8.616778174531396 3.4114613248378 -25.595523308489934 0 0 0
417 0 8 -1.05 8.637053828467515 7.757744418200419 -21.22256904892479 0 0 0
375 0 8 -1.05 8.697215716009834 1.1123575452545942 -23.434037813444398 0 0 0
90 0 7 1.575 11.935551708821965 4.433643921214572 -26.486062329140147 0 0 0
378 0 7 1.575 9.780680680004064 2.2875463634222926 -24.570116581771597 0 0 0
380 0 6 1.05 10.905413785000633 3.281298177736305 -21.301180583051515 0 0 0
421 0 7 1.575 10.784027840263018 5.409298724903491 -23.306641654936758 0 0 0
418 0 7 1.575 8.693219728601937 7.544569740847518 -23.364993968021185 0 0 0
83 0 6 1.05 8.732883307807208 5.489798131888723 -25.58785458497604 0 0 0
376 0 6 1.05 8.94792621201578 1.1888507526204615 -21.456646937571605 0 0 0
87 0 6 1.05 10.847583998176422 7.572108377521821 -25.564937660686176 0 0 0
419 0 8 -1.05 8.779824028951253 5.528411784016655 -23.21917539919349 0 0 0
84 0 8 -1.05 8.781513704448015 7.579906259466052 -25.31667913269539 0 0 0
379 0 8 -1.05 10.943250663446625 1.2127047598110021 -21.090596716358974 0 0 0
422 0 8 -1.05 10.893128090606545 5.395124517379181 -21.211749725735476 0 0 0
420 0 8 -1.05 10.649920901588557 7.409343556699789 -23.1295896479821 0 0 0
377 0 8 -1.05 8.76680356618545 3.2786420693687974 -21.174055071481355 0 0 0
86 0 8 -1.05 10.831034150650801 5.502975120404387 -25.260141557608456 0 0 0
381 0 8 -1.05 10.913797643995636 3.4108179442243265 -23.330851959631666 0 0 0
30 0 8 -1.05 10.960824805808109 1.2380645629841192 -25.62213358206386 0 0 0
672 0 7 1.575 9.789289378486556 6.601869801545721 -20.228351206841516 0 0 0
382 0 7 1.575 12.08410343492061 0.003160109251194166 -22.62487064950603 0 0 0
91 0 8 -1.05 12.78189609859108 7.900994526299413 -24.769680244604086 0 0 0
100 0 8 -1.05 15.271422937560615 5.463320713004625 -25.436074548334954 0 0 0
430 0 7 1.575 16.24243111910311 4.465754823725171 -22.290839750285873 0 0 0
426 0 7 1.575 14.066079900626313 6.5185781229530155 -24.479012674252775 0 0 0
33 0 6 1.05 13.033072764533571 1.3140247949490964 -25.486930190798937 0 0 0
428 0 7 1.575 15.17451493980103 7.595951411675887 -21.190426415767224 0 0 0
384 0 7 1.575 13.013611266623636 3.4435487330059025 -23.282247389685654 0 0 0
387 0 7 1.575 15.145367383838 1.2585458372439253 -23.298696145492137 0 0 0
37 0 6 1.05 15.13724512057991 3.3471171516459535 -25.499261847935593 0 0 0
424 0 6 1.05 13.00053383353041 5.5333318396951245 -21.16989368829417 0 0 0
36 0 8 -1.05 15.128706246020222 1.2654899209251977 -25.254631234802034 0 0 0
383 0 8 -1.05 12.95523100839092 3.52530478762781 -21.192008741627788 0 0 0
425 0 8 -1.05 13.124518765937589 7.6872917638068285 -21.108959204266725 0 0 0
429 0 8 -1.05 15.054404898251248 7.6582315359414554 -23.155435911503815 0 0 0
423 0 8 -1.05 12.885090512273035 5.515184992737944 -23.22502533594246 0 0 0
386 0 8 -1.05 15.0481162709391 3.32348808156124 -23.21390749094408 0 0 0
427 0 8 -1.05 15.178457500686632 5.61960322948608 -21.11573471733816 0 0 0
34 0 8 -1.05 13.024464134431405 3.4162262605681564 -25.22950387035378 0 0 0
385 0 8 -1.05 13.180895934608925 1.5080374636484848 -23.038622826310167 0 0 0
388 0 8 -1.05 15.243363444102826 1.184767125169548 -21.190625567758925 0 0 0
636 0 7 1.575 14.01744808277377 2.2752883609550087 -20.24515345567744 0 0 0
40 0 7 1.575 16.245488164373434 0.23228310229049332 -26.494485464390724 0 0 0
396 0 7 1.575 20.417094494320295 0.2443440247576357 -22.281917044564576 0 0 0
60 0 7 1.575 24.52471581583668 0.2937510501976728 -26.680953936616465 0 0 0
686 0 7 1.575 18.2764301034019 6.5710990257953625 -20.064885751676282 0 0 0
650 0 7 1.575 22.511268480249125 2.3732403203502295 -20.069060062579034 0 0 0
402 0 8 -1.05 23.659069682800205 1.2671064670528296 -21.10024540506461 0 0 0
50 0 8 -1.05 19.490718245964455 1.1545193495838866 -25.353551508819567 0 0 0
395 0 8 -1.05 19.3566722728624 3.4115787759293252 -23.14333275963142 0 0 0
106 0 8 -1.05 19.287569930115012 5.633768449745931 -25.401483938641874 0 0 0
391 0 8 -1.05 17.370602480583194 3.421739568478998 -21.093887456544476 0 0 0
399 0 8 -1.05 21.510731292583966 1.3602545598423845 -23.35107899042212 0 0 0
434 0 8 -1.05 19.30132198745413 7.633093092740597 -23.347758721499698 0 0 0
54 0 8 -1.05 21.499417893541143 3.34644275353085 -25.393930587933333 0 0 0
441 0 8 -1.05 23.520506213396164 5.534953429194044 -20.995097796287773 0 0 0
436 0 8 -1.05 19.474374177207004 5.4276638640575365 -21.01896203648664 0 0 0
400 0 8 -1.05 23.4966978764009 3.3701570745608604 -23.389165994448547 0 0 0
393 0 8 -1.05 19.414599213403136 1.3766905487222019 -21.00719647891294 0 0 0
437 0 8 -1.05 21.466975303426047 5.5449700768661545 -23.13387930208131 0 0 0
104 0 8 -1.05 17.275580840702116 7.604672035516799 -25.357461883025742 0 0 0
443 0 8 -1.05 23.562998304308536 7.761294341987571 -23.237310191166536 0 0 0
433 0 8 -1.05 17.305710427172937 5.630398057859706 -23.34108677586366 0 0 0
439 0 8 -1.05 21.4629330645602 7.546484812938487 -21.029369034408845 0 0 0
397 0 8 -1.05 21.369394810704172 3.551396903625709 -21.046256960030878 0 0 0
56 0 8 -1.05 23.498737210394733 1.3736437905047314 -25.418429017063296 0 0 0
438 0 7 1.575 21.480802338439393 5.557611376597731 -21.185886495844834 0 0 0
107 0 7 1.575 19.31439089370241 7.6578143004317 -25.464918342460994 0 0 0
57 0 7 1.575 23.52916603125945 3.4149587076652783 -25.522224105505252 0 0 0
390 0 6 1.05 17.27558551165376 1.2890953879864384 -21.200413890616375 0 0 0
401 0 6 1.05 23.577782984569136 1.2972357385506983 -23.38275822197407 0 0 0
398 0 6 1.05 21.44168248158106 3.427346141438197 -23.36766206543598 0 0 0
103 0 7 1.575 17.25750370230555 5.524181835541229 -25.459478489206905 0 0 0
432 0 6 1.05 17.229966748829977 7.696560975472263 -23.336752579704346 0 0 0
435 0 6 1.05 19.369504134867555 5.529618864959358 -23.368885658513186 0 0 0
442 0 6 1.05 23.623408665004334 7.674173865723176 -21.214842738804307 0 0 0
394 0 7 1.575 19.35840629448584 3.4108829523161046 -21.194130287384432 0 0 0
53 0 7 1.575 21.475075071265103 1.2930390558474454 -25.488767746204545 0 0 0
440 0 7 1.575 22.486017443075763 6.627589656649914 -24.417094108131487 0 0 0
444 0 7 1.575 24.56890131223103 4.497597245248401 -22.31712633202006 0 0 0
392 0 7 1.575 18.31213643122092 2.316418577037372 -24.413291052895403 0 0 0
120 0 8 -1.05 23.633215496661606 5.4400031297911635 -25.383183341683672 0 0 0
111 0 8 -1.05 21.299995817862943 7.7374096679652755 -25.417300999524386 0 0 0
110 0 7 1.575 20.385745702111286 4.4647734537237405 -26.535801272257945 0 0 0
389 0 8 -1.05 17.1924906401265 1.198725473084859 -23.241736677541464 0 0 0
431 0 8 -1.05 17.17133361602319 7.761059591403472 -21.091154730878362 0 0 0
41 0 8 -1.05 17.218261063622204 3.552585586405792 -25.334296324767667 0 0 0
140 0 7 1.575 7.755332806637869 8.539649822393862 -26.64862744863759 0 0 0
452 0 7 1.575 3.479087934310223 8.621395599767641 -22.5103955732052 0 0 0
130 0 8 -1.05 2.5421564813149913 9.553023905853385 -25.230393983052362 0 0 0
458 0 8 -1.05 6.786529984216924 9.717793023428719 -20.808985184181516 0 0 0
448 0 7 1.575 0.8943940223668132 10.4860707199495 -25.117430162501254 0 0 0
133 0 7 1.575 4.464315119494733 9.665143824936674 -25.6289318167351 0 0 0
450 0 7 1.575 2.624149754067608 11.866864710112116 -21.339070591689232 0 0 0
454 0 7 1.575 4.6607457724743 11.813720635908801 -23.518029646849325 0 0 0
457 0 6 1.05 6.650956335293142 9.573034055152522 -23.503133241998786 0 0 0
446 0 7 1.575 0.4013309345948673 9.806592905058258 -21.49141472463605 0 0 0
137 0 6 1.05 6.6562809870155295 11.457267524651193 -26.063313878002766 0 0 0
136 0 8 -1.05 6.5476507610530605 9.55343035249136 -25.497137123826032 0 0 0
453 0 8 -1.05 4.602669683605468 12.000866274689093 -21.30600274373093 0 0 0
449 0 8 -1.05 2.4620537641709532 9.798020933587956 -21.329443120414698 0 0 0
456 0 8 -1.05 6.6045677026325365 11.535310427142317 -22.956584152013367 0 0 0