LAMMPS data file via write_data, version 29 Sep 2021, timestep = 12849957

1665 atoms
10 atom types
36 bonds
6 bond types
54 angles
6 angle types
0 dihedrals
2 dihedral types
9 impropers
2 improper types

0 25.44 xlo xhi
0 25.44 ylo yhi
-28.258421897888184 40.90800094604492 zlo zhi

Masses

1 12.011
2 1.008
3 15.9994
4 15.9994
5 1.008
6 55.845
7 55.845
8 15.9994
9 15.9994
10 1.008

Pair Coeffs # lj/cut/coul/long

1 0.0988 3.31521
2 0.0161 2.4473
3 0.1463 3.04812
4 0.093 3.24287
5 0.0047 0.537925
6 9.0298e-07 4.9062
7 9.0298e-07 4.9062
8 0.1554 3.16554
9 0.1554 3.16554
10 0 0

Bond Coeffs # harmonic

1 361.8 1.105
2 652.57 1.218
3 383.13 1.351
4 563.51 0.973
5 554.135 1
6 0 2.08

Angle Coeffs # harmonic

1 51.617 106.55
2 65.93 123.65
3 65.262 109.49
4 115.745 122.1
5 118.817 130.25
6 30 109.47

Dihedral Coeffs # fourier

1 1 2.3 2 180
2 2 2.3 2 180 1.9 1 0

Improper Coeffs # cvff

1 10.5 -1 2
2 10.5 -1 2

Atoms # full

124 0 8 -1.05 2.3415820000000003 4.535251999999998 -8.184751999999996 0 0 0
131 0 8 -1.05 4.535251999999998 2.3415820000000003 -8.184751999999996 0 0 0
137 0 8 -1.05 2.415252 8.701582 -8.258422000000003 0 0 0
144 0 8 -1.05 0.295252 6.581580999999999 -8.184751999999996 0 0 0
145 0 8 -1.05 8.701582 2.415252 -8.258422000000003 0 0 0
153 0 8 -1.05 6.581580999999999 0.295252 -8.184751999999996 0 0 0
156 2 7 1.575 2.3784170000000002 6.618416999999998 -8.221587 0 0 0
157 0 8 -1.05 4.461582 6.655251999999998 -8.258422000000003 0 0 0
158 2 7 1.575 6.618416999999998 2.3784170000000002 -8.221587 0 0 0
164 2 7 1.575 0.258417 4.498416999999998 -8.221587 0 0 0
166 0 8 -1.05 6.655251999999998 4.461582 -8.258422000000003 0 0 0
169 1 7 1.575 1.3184170000000002 1.3184170000000002 -7.161586999999997 0 0 0
175 1 7 1.575 5.5584169999999995 5.5584169999999995 -7.161586999999997 0 0 0
177 2 7 1.575 4.498416999999998 0.258417 -8.221587 0 0 0
121 0 8 -1.05 6.581580999999999 6.581580999999999 -1.8984230000000082 0 0 0
122 0 8 -1.05 2.415252 2.415252 -6.064752000000002 0 0 0
125 0 8 -1.05 8.701582 6.655251999999998 -4.0184219999999975 0 0 0
126 0 8 -1.05 0.295252 2.3415820000000003 -3.944752000000001 0 0 0
127 0 8 -1.05 4.461582 8.701582 -1.8247519999999966 0 0 0
128 0 8 -1.05 4.535251999999998 0.295252 -6.138421999999995 0 0 0
129 0 8 -1.05 2.3415820000000003 6.581580999999999 -6.138421999999995 0 0 0
130 0 8 -1.05 6.655251999999998 2.415252 -1.8247519999999966 0 0 0
133 0 8 -1.05 6.581580999999999 4.535251999999998 -3.944752000000001 0 0 0
134 0 8 -1.05 2.415252 4.461582 -4.0184219999999975 0 0 0
135 0 8 -1.05 0.295252 0.295252 -1.8984230000000082 0 0 0
136 0 8 -1.05 8.701582 8.701582 -6.064752000000002 0 0 0
138 0 8 -1.05 6.581580999999999 2.3415820000000003 -6.138421999999995 0 0 0
139 0 8 -1.05 2.415252 6.655251999999998 -1.8247519999999966 0 0 0
140 0 8 -1.05 2.3415820000000003 0.295252 -3.944752000000001 0 0 0
141 0 8 -1.05 6.655251999999998 8.701582 -4.0184219999999975 0 0 0
142 0 8 -1.05 4.535251999999998 4.535251999999998 -1.8984230000000082 0 0 0
143 0 8 -1.05 4.461582 4.461582 -6.064752000000002 0 0 0
147 0 8 -1.05 2.3415820000000003 2.3415820000000003 -1.8984230000000082 0 0 0
148 0 8 -1.05 6.655251999999998 6.655251999999998 -6.064752000000002 0 0 0
149 0 8 -1.05 0.295252 4.535251999999998 -6.138421999999995 0 0 0
150 0 8 -1.05 8.701582 4.461582 -1.8247519999999966 0 0 0
151 0 8 -1.05 4.535251999999998 6.581580999999999 -3.944752000000001 0 0 0
152 0 8 -1.05 4.461582 2.415252 -4.0184219999999975 0 0 0
155 2 6 1.05 4.498416999999998 4.498416999999998 -3.981587000000008 0 0 0
159 2 6 1.05 0.258417 0.258417 -3.981587000000008 0 0 0
160 2 7 1.575 6.618416999999998 0.258417 -6.101587000000002 0 0 0
161 2 7 1.575 2.3784170000000002 0.258417 -1.861587 0 0 0
162 2 7 1.575 4.498416999999998 6.618416999999998 -1.861587 0 0 0
163 2 7 1.575 4.498416999999998 2.3784170000000002 -6.101587000000002 0 0 0
165 2 7 1.575 0.258417 2.3784170000000002 -1.861587 0 0 0
167 2 7 1.575 0.258417 6.618416999999998 -6.101587000000002 0 0 0
168 2 7 1.575 2.3784170000000002 4.498416999999998 -6.101587000000002 0 0 0
170 1 7 1.575 7.678417 7.678417 -0.8015869999999978 0 0 0
171 1 7 1.575 5.5584169999999995 1.3184170000000002 -2.9215870000000024 0 0 0
172 1 7 1.575 3.4384170000000003 7.678417 -5.041587000000003 0 0 0
173 1 7 1.575 1.3184170000000002 5.5584169999999995 -2.9215870000000024 0 0 0
174 1 7 1.575 7.678417 3.4384170000000003 -5.041587000000003 0 0 0
176 1 7 1.575 3.4384170000000003 3.4384170000000003 -0.8015869999999978 0 0 0
178 2 6 1.05 2.3784170000000002 2.3784170000000002 -3.981587000000008 0 0 0
179 2 6 1.05 6.618416999999998 6.618416999999998 -3.981587000000008 0 0 0
180 2 7 1.575 6.618416999999998 4.498416999999998 -1.861587 0 0 0
686 0 8 -1.05 4.535251999999998 10.821582000000001 -8.184751999999996 0 0 0
700 0 8 -1.05 8.701582 10.895252000000001 -8.258422000000003 0 0 0
708 0 8 -1.05 6.581580999999999 8.775252 -8.184751999999996 0 0 0
713 2 7 1.575 6.618416999999998 10.858417000000001 -8.221587 0 0 0
724 1 7 1.575 1.3184170000000002 9.798417 -7.161586999999997 0 0 0
732 2 7 1.575 4.498416999999998 8.738417 -8.221587 0 0 0
677 0 8 -1.05 2.415252 10.895252000000001 -6.064752000000002 0 0 0
681 0 8 -1.05 0.295252 10.821582000000001 -3.944752000000001 0 0 0
683 0 8 -1.05 4.535251999999998 8.775252 -6.138421999999995 0 0 0
685 0 8 -1.05 6.655251999999998 10.895252000000001 -1.8247519999999966 0 0 0
690 0 8 -1.05 0.295252 8.775252 -1.8984230000000082 0 0 0
693 0 8 -1.05 6.581580999999999 10.821582000000001 -6.138421999999995 0 0 0
695 0 8 -1.05 2.3415820000000003 8.775252 -3.944752000000001 0 0 0
702 0 8 -1.05 2.3415820000000003 10.821582000000001 -1.8984230000000082 0 0 0
707 0 8 -1.05 4.461582 10.895252000000001 -4.0184219999999975 0 0 0
714 2 6 1.05 0.258417 8.738417 -3.981587000000008 0 0 0
715 2 7 1.575 6.618416999999998 8.738417 -6.101587000000002 0 0 0
716 2 7 1.575 2.3784170000000002 8.738417 -1.861587 0 0 0
718 2 7 1.575 4.498416999999998 10.858417000000001 -6.101587000000002 0 0 0
720 2 7 1.575 0.258417 10.858417000000001 -1.861587 0 0 0
726 1 7 1.575 5.5584169999999995 9.798417 -2.9215870000000024 0 0 0
729 1 7 1.575 7.678417 11.918417000000002 -5.041587000000003 0 0 0
731 1 7 1.575 3.4384170000000003 11.918417000000002 -0.8015869999999978 0 0 0
733 2 6 1.05 2.3784170000000002 10.858417000000001 -3.981587000000008 0 0 0
1247 0 8 -1.05 2.415252 0.2215820000000015 -8.258422000000003 0 1 0
1237 0 8 -1.05 4.461582 0.2215820000000015 -1.8247519999999966 0 1 0
1246 0 8 -1.05 8.701582 0.2215820000000015 -6.064752000000002 0 1 0
1251 0 8 -1.05 6.655251999999998 0.2215820000000015 -4.0184219999999975 0 1 0
309 0 8 -1.05 10.821582000000001 4.535251999999998 -8.184751999999996 0 0 0
322 0 8 -1.05 10.895252000000001 8.701582 -8.258422000000003 0 0 0
329 0 8 -1.05 8.775252 6.581580999999999 -8.184751999999996 0 0 0
341 2 7 1.575 10.858417000000001 6.618416999999998 -8.221587 0 0 0
349 2 7 1.575 8.738417 4.498416999999998 -8.221587 0 0 0
354 1 7 1.575 9.798417 1.3184170000000002 -7.161586999999997 0 0 0
307 0 8 -1.05 10.895252000000001 2.415252 -6.064752000000002 0 0 0
311 0 8 -1.05 8.775252 2.3415820000000003 -3.944752000000001 0 0 0
314 0 8 -1.05 10.821582000000001 6.581580999999999 -6.138421999999995 0 0 0
319 0 8 -1.05 10.895252000000001 4.461582 -4.0184219999999975 0 0 0
320 0 8 -1.05 8.775252 0.295252 -1.8984230000000082 0 0 0
324 0 8 -1.05 10.895252000000001 6.655251999999998 -1.8247519999999966 0 0 0
325 0 8 -1.05 10.821582000000001 0.295252 -3.944752000000001 0 0 0
332 0 8 -1.05 10.821582000000001 2.3415820000000003 -1.8984230000000082 0 0 0
334 0 8 -1.05 8.775252 4.535251999999998 -6.138421999999995 0 0 0
344 2 6 1.05 8.738417 0.258417 -3.981587000000008 0 0 0
346 2 7 1.575 10.858417000000001 0.258417 -1.861587 0 0 0
350 2 6 1.05 8.738417 2.3784170000000002 -1.861587 0 0 0
352 2 7 1.575 8.738417 6.618416999999998 -6.101587000000002 0 0 0
353 2 7 1.575 10.858417000000001 4.498416999999998 -6.101587000000002 0 0 0
357 1 7 1.575 11.918417000000002 7.678417 -5.041587000000003 0 0 0
358 1 7 1.575 9.798417 5.5584169999999995 -2.9215870000000024 0 0 0
361 1 7 1.575 11.918417000000002 3.4384170000000003 -0.8015869999999978 0 0 0
363 2 6 1.05 10.858417000000001 2.3784170000000002 -3.981587000000008 0 0 0
909 1 7 1.575 9.798417 9.798417 -7.161586999999997 0 0 0
862 0 8 -1.05 10.895252000000001 10.895252000000001 -6.064752000000002 0 0 0
866 0 8 -1.05 8.775252 10.821582000000001 -3.944752000000001 0 0 0
875 0 8 -1.05 8.775252 8.775252 -1.8984230000000082 0 0 0
880 0 8 -1.05 10.821582000000001 8.775252 -3.944752000000001 0 0 0
887 0 8 -1.05 10.821582000000001 10.821582000000001 -1.8984230000000082 0 0 0
899 2 6 1.05 8.738417 8.738417 -3.981587000000008 0 0 0
901 2 6 1.05 10.858417000000001 8.738417 -1.861587 0 0 0
905 2 7 1.575 8.738417 10.858417000000001 -1.861587 0 0 0
916 1 7 1.575 11.918417000000002 11.918417000000002 -0.8015869999999978 0 0 0
918 2 6 1.05 10.858417000000001 10.858417000000001 -3.981587000000008 0 0 0
1432 0 8 -1.05 10.895252000000001 0.2215820000000015 -8.258422000000003 0 1 0
515 0 8 -1.05 0.2215820000000015 2.415252 -8.258422000000003 1 0 0
495 0 8 -1.05 0.2215820000000015 6.655251999999998 -4.0184219999999975 1 0 0
506 0 8 -1.05 0.2215820000000015 8.701582 -6.064752000000002 1 0 0
520 0 8 -1.05 0.2215820000000015 4.461582 -1.8247519999999966 1 0 0
1070 0 8 -1.05 0.2215820000000015 10.895252000000001 -8.258422000000003 1 0 0
1616 0 8 -1.05 0.2215820000000015 0.2215820000000015 -6.064752000000002 1 1 0
65 0 8 -1.05 6.581580999999999 6.581580999999999 6.581576999999989 0 0 0
66 0 8 -1.05 2.415252 2.415252 2.415247999999991 0 0 0
68 0 8 -1.05 2.3415820000000003 4.535251999999998 0.29524799999999374 0 0 0
69 0 8 -1.05 8.701582 6.655251999999998 4.461577999999996 0 0 0
70 0 8 -1.05 0.295252 2.3415820000000003 4.535248000000003 0 0 0
71 0 8 -1.05 4.461582 8.701582 6.655248000000007 0 0 0
72 0 8 -1.05 4.535251999999998 0.295252 2.3415779999999913 0 0 0
73 0 8 -1.05 2.3415820000000003 6.581580999999999 2.3415779999999913 0 0 0
74 0 8 -1.05 6.655251999999998 2.415252 6.655248000000007 0 0 0
75 0 8 -1.05 4.535251999999998 2.3415820000000003 0.29524799999999374 0 0 0
77 0 8 -1.05 6.581580999999999 4.535251999999998 4.535248000000003 0 0 0
78 0 8 -1.05 2.415252 4.461582 4.461577999999996 0 0 0
79 0 8 -1.05 0.295252 0.295252 6.581576999999989 0 0 0
80 0 8 -1.05 8.701582 8.701582 2.415247999999991 0 0 0
81 0 8 -1.05 6.581580999999999 2.3415820000000003 2.3415779999999913 0 0 0
82 0 8 -1.05 2.415252 6.655251999999998 6.655248000000007 0 0 0
83 0 8 -1.05 2.3415820000000003 0.295252 4.535248000000003 0 0 0
84 0 8 -1.05 6.655251999999998 8.701582 4.461577999999996 0 0 0
85 0 8 -1.05 4.535251999999998 4.535251999999998 6.581576999999989 0 0 0
86 0 8 -1.05 4.461582 4.461582 2.415247999999991 0 0 0
87 0 8 -1.05 0.295252 6.581580999999999 0.29524799999999374 0 0 0
89 0 8 -1.05 2.3415820000000003 2.3415820000000003 6.581576999999989 0 0 0
90 0 8 -1.05 6.655251999999998 6.655251999999998 2.415247999999991 0 0 0
91 0 8 -1.05 0.295252 4.535251999999998 2.3415779999999913 0 0 0
92 0 8 -1.05 8.701582 4.461582 6.655248000000007 0 0 0
93 0 8 -1.05 4.535251999999998 6.581580999999999 4.535248000000003 0 0 0
94 0 8 -1.05 4.461582 2.415252 4.461577999999996 0 0 0
95 0 8 -1.05 6.581580999999999 0.295252 0.29524799999999374 0 0 0
97 2 6 1.05 4.498416999999998 4.498416999999998 4.498412999999999 0 0 0
98 2 6 1.05 2.3784170000000002 6.618416999999998 0.25841300000000444 0 0 0
99 2 6 1.05 6.618416999999998 2.3784170000000002 0.25841300000000444 0 0 0
100 2 6 1.05 0.258417 0.258417 4.498412999999999 0 0 0
101 2 7 1.575 6.618416999999998 0.258417 2.3784129999999877 0 0 0
102 2 7 1.575 2.3784170000000002 0.258417 6.618413000000004 0 0 0
103 2 7 1.575 4.498416999999998 6.618416999999998 6.618413000000004 0 0 0
104 2 7 1.575 4.498416999999998 2.3784170000000002 2.3784129999999877 0 0 0
105 2 6 1.05 0.258417 4.498416999999998 0.25841300000000444 0 0 0
106 2 7 1.575 0.258417 2.3784170000000002 6.618413000000004 0 0 0
107 2 7 1.575 0.258417 6.618416999999998 2.3784129999999877 0 0 0
108 2 7 1.575 2.3784170000000002 4.498416999999998 2.3784129999999877 0 0 0
109 2 6 1.05 6.618416999999998 4.498416999999998 6.618413000000004 0 0 0
110 2 6 1.05 6.618416999999998 6.618416999999998 4.498412999999999 0 0 0
111 2 6 1.05 2.3784170000000002 2.3784170000000002 4.498412999999999 0 0 0
112 2 6 1.05 4.498416999999998 0.258417 0.25841300000000444 0 0 0
114 1 7 1.575 5.5584169999999995 5.5584169999999995 1.3184129999999925 0 0 0
115 1 7 1.575 7.678417 3.4384170000000003 3.43841299999999 0 0 0
116 1 7 1.575 1.3184170000000002 5.5584169999999995 5.558413000000002 0 0 0
117 1 7 1.575 3.4384170000000003 7.678417 3.43841299999999 0 0 0
118 1 7 1.575 5.5584169999999995 1.3184170000000002 5.558413000000002 0 0 0
120 1 7 1.575 1.3184170000000002 1.3184170000000002 1.3184129999999925 0 0 0
123 0 8 -1.05 6.655251999999998 4.461582 0.22157800000000805 0 0 0
132 0 8 -1.05 4.461582 6.655251999999998 0.22157800000000805 0 0 0
146 0 8 -1.05 8.701582 2.415252 0.22157800000000805 0 0 0
154 0 8 -1.05 2.415252 8.701582 0.22157800000000805 0 0 0
10 0 8 -1.05 2.415252 2.415252 10.895247999999995 0 0 0
12 0 8 -1.05 2.3415820000000003 4.535251999999998 8.775248000000012 0 0 0
13 0 8 -1.05 8.701582 6.655251999999998 12.941577999999993 0 0 0
14 0 8 -1.05 0.295252 2.3415820000000003 13.015247999999993 0 0 0
16 0 8 -1.05 4.535251999999998 0.295252 10.821577999999995 0 0 0
17 0 8 -1.05 2.3415820000000003 6.581580999999999 10.821577999999995 0 0 0
19 0 8 -1.05 4.535251999999998 2.3415820000000003 8.775248000000012 0 0 0
21 0 8 -1.05 6.581580999999999 4.535251999999998 13.015247999999993 0 0 0
22 0 8 -1.05 2.415252 4.461582 12.941577999999993 0 0 0
24 0 8 -1.05 8.701582 8.701582 10.895247999999995 0 0 0
25 0 8 -1.05 6.581580999999999 2.3415820000000003 10.821577999999995 0 0 0
27 0 8 -1.05 2.3415820000000003 0.295252 13.015247999999993 0 0 0
28 0 8 -1.05 6.655251999999998 8.701582 12.941577999999993 0 0 0
30 0 8 -1.05 4.461582 4.461582 10.895247999999995 0 0 0
31 0 8 -1.05 0.295252 6.581580999999999 8.775248000000012 0 0 0
34 0 8 -1.05 6.655251999999998 6.655251999999998 10.895247999999995 0 0 0
35 0 8 -1.05 0.295252 4.535251999999998 10.821577999999995 0 0 0
37 0 8 -1.05 4.535251999999998 6.581580999999999 13.015247999999993 0 0 0
38 0 8 -1.05 4.461582 2.415252 12.941577999999993 0 0 0
39 0 8 -1.05 6.581580999999999 0.295252 8.775248000000012 0 0 0
41 2 7 1.575 4.498416999999998 4.498416999999998 12.978412999999996 0 0 0
42 2 6 1.05 2.3784170000000002 6.618416999999998 8.738413000000008 0 0 0
43 2 7 1.575 6.618416999999998 2.3784170000000002 8.738413000000008 0 0 0
44 2 7 1.575 0.258417 0.258417 12.978412999999996 0 0 0
45 2 6 1.05 6.618416999999998 0.258417 10.858412999999992 0 0 0
48 2 7 1.575 4.498416999999998 2.3784170000000002 10.858412999999992 0 0 0
49 2 7 1.575 0.258417 4.498416999999998 8.738413000000008 0 0 0
51 2 7 1.575 0.258417 6.618416999999998 10.858412999999992 0 0 0
52 2 6 1.05 2.3784170000000002 4.498416999999998 10.858412999999992 0 0 0
54 2 6 1.05 6.618416999999998 6.618416999999998 12.978412999999996 0 0 0
55 2 6 1.05 2.3784170000000002 2.3784170000000002 12.978412999999996 0 0 0
56 2 6 1.05 4.498416999999998 0.258417 8.738413000000008 0 0 0
58 1 7 1.575 5.5584169999999995 5.5584169999999995 9.798412999999996 0 0 0
59 1 7 1.575 7.678417 3.4384170000000003 11.918412999999994 0 0 0
61 1 7 1.575 3.4384170000000003 7.678417 11.918412999999994 0 0 0
64 1 7 1.575 1.3184170000000002 1.3184170000000002 9.798412999999996 0 0 0
67 0 8 -1.05 6.655251999999998 4.461582 8.701578000000005 0 0 0
76 0 8 -1.05 4.461582 6.655251999999998 8.701578000000005 0 0 0
88 0 8 -1.05 8.701582 2.415252 8.701578000000005 0 0 0
96 0 8 -1.05 2.415252 8.701582 8.701578000000005 0 0 0
113 1 7 1.575 3.4384170000000003 3.4384170000000003 7.678413000000006 0 0 0
119 1 7 1.575 7.678417 7.678417 7.678413000000006 0 0 0
621 0 8 -1.05 2.415252 10.895252000000001 2.415247999999991 0 0 0
625 0 8 -1.05 0.295252 10.821582000000001 4.535248000000003 0 0 0
627 0 8 -1.05 4.535251999999998 8.775252 2.3415779999999913 0 0 0
629 0 8 -1.05 6.655251999999998 10.895252000000001 6.655248000000007 0 0 0
630 0 8 -1.05 4.535251999999998 10.821582000000001 0.29524799999999374 0 0 0
634 0 8 -1.05 0.295252 8.775252 6.581576999999989 0 0 0
636 0 8 -1.05 6.581580999999999 10.821582000000001 2.3415779999999913 0 0 0
638 0 8 -1.05 2.3415820000000003 8.775252 4.535248000000003 0 0 0
644 0 8 -1.05 2.3415820000000003 10.821582000000001 6.581576999999989 0 0 0
649 0 8 -1.05 4.461582 10.895252000000001 4.461577999999996 0 0 0
650 0 8 -1.05 6.581580999999999 8.775252 0.29524799999999374 0 0 0
654 2 7 1.575 6.618416999999998 10.858417000000001 0.25841300000000444 0 0 0
655 2 6 1.05 0.258417 8.738417 4.498412999999999 0 0 0
656 2 7 1.575 6.618416999999998 8.738417 2.3784129999999877 0 0 0
657 2 7 1.575 2.3784170000000002 8.738417 6.618413000000004 0 0 0
659 2 6 1.05 4.498416999999998 10.858417000000001 2.3784129999999877 0 0 0
661 2 6 1.05 0.258417 10.858417000000001 6.618413000000004 0 0 0
666 2 7 1.575 2.3784170000000002 10.858417000000001 4.498412999999999 0 0 0
667 2 6 1.05 4.498416999999998 8.738417 0.25841300000000444 0 0 0
670 1 7 1.575 7.678417 11.918417000000002 3.43841299999999 0 0 0
673 1 7 1.575 5.5584169999999995 9.798417 5.558413000000002 0 0 0
675 1 7 1.575 1.3184170000000002 9.798417 1.3184129999999925 0 0 0
701 0 8 -1.05 8.701582 10.895252000000001 0.22157800000000805 0 0 0
565 0 8 -1.05 2.415252 10.895252000000001 10.895247999999995 0 0 0
569 0 8 -1.05 0.295252 10.821582000000001 13.015247999999993 0 0 0
571 0 8 -1.05 4.535251999999998 8.775252 10.821577999999995 0 0 0
574 0 8 -1.05 4.535251999999998 10.821582000000001 8.775248000000012 0 0 0
580 0 8 -1.05 6.581580999999999 10.821582000000001 10.821577999999995 0 0 0
582 0 8 -1.05 2.3415820000000003 8.775252 13.015247999999993 0 0 0
593 0 8 -1.05 4.461582 10.895252000000001 12.941577999999993 0 0 0
594 0 8 -1.05 6.581580999999999 8.775252 8.775248000000012 0 0 0
598 2 6 1.05 6.618416999999998 10.858417000000001 8.738413000000008 0 0 0
599 2 7 1.575 0.258417 8.738417 12.978412999999996 0 0 0
600 2 7 1.575 6.618416999999998 8.738417 10.858412999999992 0 0 0
603 2 7 1.575 4.498416999999998 10.858417000000001 10.858412999999992 0 0 0
610 2 6 1.05 2.3784170000000002 10.858417000000001 12.978412999999996 0 0 0
611 2 6 1.05 4.498416999999998 8.738417 8.738413000000008 0 0 0
614 1 7 1.575 7.678417 11.918417000000002 11.918412999999994 0 0 0
619 1 7 1.575 1.3184170000000002 9.798417 9.798412999999996 0 0 0
643 0 8 -1.05 8.701582 10.895252000000001 8.701578000000005 0 0 0
668 1 7 1.575 3.4384170000000003 11.918417000000002 7.678413000000006 0 0 0
1181 0 8 -1.05 4.461582 0.2215820000000015 6.655248000000007 0 1 0
1190 0 8 -1.05 8.701582 0.2215820000000015 2.415247999999991 0 1 0
1194 0 8 -1.05 6.655251999999998 0.2215820000000015 4.461577999999996 0 1 0
1264 0 8 -1.05 2.415252 0.2215820000000015 0.22157800000000805 0 1 0
1134 0 8 -1.05 8.701582 0.2215820000000015 10.895247999999995 0 1 0
1138 0 8 -1.05 6.655251999999998 0.2215820000000015 12.941577999999993 0 1 0
1206 0 8 -1.05 2.415252 0.2215820000000015 8.701578000000005 0 1 0
251 0 8 -1.05 10.895252000000001 2.415252 2.415247999999991 0 0 0
253 0 8 -1.05 10.821582000000001 4.535251999999998 0.29524799999999374 0 0 0
255 0 8 -1.05 8.775252 2.3415820000000003 4.535248000000003 0 0 0
258 0 8 -1.05 10.821582000000001 6.581580999999999 2.3415779999999913 0 0 0
263 0 8 -1.05 10.895252000000001 4.461582 4.461577999999996 0 0 0
264 0 8 -1.05 8.775252 0.295252 6.581576999999989 0 0 0
267 0 8 -1.05 10.895252000000001 6.655251999999998 6.655248000000007 0 0 0
268 0 8 -1.05 10.821582000000001 0.295252 4.535248000000003 0 0 0
272 0 8 -1.05 8.775252 6.581580999999999 0.29524799999999374 0 0 0
274 0 8 -1.05 10.821582000000001 2.3415820000000003 6.581576999999989 0 0 0
276 0 8 -1.05 8.775252 4.535251999999998 2.3415779999999913 0 0 0
283 2 6 1.05 10.858417000000001 6.618416999999998 0.25841300000000444 0 0 0
285 2 7 1.575 8.738417 0.258417 4.498412999999999 0 0 0
287 2 6 1.05 10.858417000000001 0.258417 6.618413000000004 0 0 0
290 2 7 1.575 8.738417 4.498416999999998 0.25841300000000444 0 0 0
291 2 7 1.575 8.738417 2.3784170000000002 6.618413000000004 0 0 0
292 2 6 1.05 8.738417 6.618416999999998 2.3784129999999877 0 0 0
293 2 7 1.575 10.858417000000001 4.498416999999998 2.3784129999999877 0 0 0
296 2 6 1.05 10.858417000000001 2.3784170000000002 4.498412999999999 0 0 0
301 1 7 1.575 9.798417 5.5584169999999995 5.558413000000002 0 0 0
302 1 7 1.575 11.918417000000002 7.678417 3.43841299999999 0 0 0
305 1 7 1.575 9.798417 1.3184170000000002 1.3184129999999925 0 0 0
339 0 8 -1.05 10.895252000000001 8.701582 0.22157800000000805 0 0 0
195 0 8 -1.05 10.895252000000001 2.415252 10.895247999999995 0 0 0
197 0 8 -1.05 10.821582000000001 4.535251999999998 8.775248000000012 0 0 0
199 0 8 -1.05 8.775252 2.3415820000000003 13.015247999999993 0 0 0
202 0 8 -1.05 10.821582000000001 6.581580999999999 10.821577999999995 0 0 0
207 0 8 -1.05 10.895252000000001 4.461582 12.941577999999993 0 0 0
212 0 8 -1.05 10.821582000000001 0.295252 13.015247999999993 0 0 0
216 0 8 -1.05 8.775252 6.581580999999999 8.775248000000012 0 0 0
220 0 8 -1.05 8.775252 4.535251999999998 10.821577999999995 0 0 0
227 2 7 1.575 10.858417000000001 6.618416999999998 8.738413000000008 0 0 0
229 2 6 1.05 8.738417 0.258417 12.978412999999996 0 0 0
234 2 6 1.05 8.738417 4.498416999999998 8.738413000000008 0 0 0
236 2 7 1.575 8.738417 6.618416999999998 10.858412999999992 0 0 0
237 2 6 1.05 10.858417000000001 4.498416999999998 10.858412999999992 0 0 0
240 2 7 1.575 10.858417000000001 2.3784170000000002 12.978412999999996 0 0 0
246 1 7 1.575 11.918417000000002 7.678417 11.918412999999994 0 0 0
249 1 7 1.575 9.798417 1.3184170000000002 9.798412999999996 0 0 0
281 0 8 -1.05 10.895252000000001 8.701582 8.701578000000005 0 0 0
298 1 7 1.575 11.918417000000002 3.4384170000000003 7.678413000000006 0 0 0
806 0 8 -1.05 10.895252000000001 10.895252000000001 2.415247999999991 0 0 0
810 0 8 -1.05 8.775252 10.821582000000001 4.535248000000003 0 0 0
819 0 8 -1.05 8.775252 8.775252 6.581576999999989 0 0 0
823 0 8 -1.05 10.821582000000001 8.775252 4.535248000000003 0 0 0
829 0 8 -1.05 10.821582000000001 10.821582000000001 6.581576999999989 0 0 0
840 2 7 1.575 8.738417 8.738417 4.498412999999999 0 0 0
842 2 6 1.05 10.858417000000001 8.738417 6.618413000000004 0 0 0
846 2 7 1.575 8.738417 10.858417000000001 6.618413000000004 0 0 0
851 2 6 1.05 10.858417000000001 10.858417000000001 4.498412999999999 0 0 0
860 1 7 1.575 9.798417 9.798417 1.3184129999999925 0 0 0
750 0 8 -1.05 10.895252000000001 10.895252000000001 10.895247999999995 0 0 0
754 0 8 -1.05 8.775252 10.821582000000001 13.015247999999993 0 0 0
767 0 8 -1.05 10.821582000000001 8.775252 13.015247999999993 0 0 0
784 2 7 1.575 8.738417 8.738417 12.978412999999996 0 0 0
795 2 6 1.05 10.858417000000001 10.858417000000001 12.978412999999996 0 0 0
804 1 7 1.575 9.798417 9.798417 9.798412999999996 0 0 0
853 1 7 1.575 11.918417000000002 11.918417000000002 7.678413000000006 0 0 0
1449 0 8 -1.05 10.895252000000001 0.2215820000000015 0.22157800000000805 0 1 0
1391 0 8 -1.05 10.895252000000001 0.2215820000000015 8.701578000000005 0 1 0
439 0 8 -1.05 0.2215820000000015 6.655251999999998 4.461577999999996 1 0 0
450 0 8 -1.05 0.2215820000000015 8.701582 2.415247999999991 1 0 0
462 0 8 -1.05 0.2215820000000015 4.461582 6.655248000000007 1 0 0
516 0 8 -1.05 0.2215820000000015 2.415252 0.22157800000000805 1 0 0
383 0 8 -1.05 0.2215820000000015 6.655251999999998 12.941577999999993 1 0 0
394 0 8 -1.05 0.2215820000000015 8.701582 10.895247999999995 1 0 0
458 0 8 -1.05 0.2215820000000015 2.415252 8.701578000000005 1 0 0
1071 0 8 -1.05 0.2215820000000015 10.895252000000001 0.22157800000000805 1 0 0
1013 0 8 -1.05 0.2215820000000015 10.895252000000001 8.701578000000005 1 0 0
1560 0 8 -1.05 0.2215820000000015 0.2215820000000015 2.415247999999991 1 1 0
1504 0 8 -1.05 0.2215820000000015 0.2215820000000015 10.895247999999995 1 1 0
60 1 7 1.575 1.3184170000000002 5.5584169999999995 14.038412999999998 0 0 0
62 1 7 1.575 5.5584169999999995 1.3184170000000002 14.038412999999998 0 0 0
1 2 7 1.575 0.258417 4.498416999999998 17.218413000000005 0 0 0
2 2 7 1.575 6.618416999999998 2.3784170000000002 17.218413000000005 0 0 0
3 2 7 1.575 2.3784170000000002 6.618416999999998 17.218413000000005 0 0 0
4 2 7 1.575 4.498416999999998 0.258417 17.218413000000005 0 0 0
5 0 8 -1.05 6.581580999999999 0.295252 17.25524800000001 0 0 0
6 0 8 -1.05 0.295252 6.581580999999999 17.25524800000001 0 0 0
7 0 8 -1.05 4.535251999999998 2.3415820000000003 17.25524800000001 0 0 0
8 0 8 -1.05 2.3415820000000003 4.535251999999998 17.25524800000001 0 0 0
9 0 8 -1.05 6.581580999999999 6.581580999999999 15.061576999999993 0 0 0
11 0 8 -1.05 6.655251999999998 4.461582 17.18157800000001 0 0 0
15 0 8 -1.05 4.461582 8.701582 15.135248000000011 0 0 0
18 0 8 -1.05 6.655251999999998 2.415252 15.135248000000011 0 0 0
20 0 9 -1 4.380290624644316 6.777011672022652 17.019593684282388 0 0 0
23 0 8 -1.05 0.295252 0.295252 15.061576999999993 0 0 0
26 0 8 -1.05 2.415252 6.655251999999998 15.135248000000011 0 0 0
29 0 8 -1.05 4.535251999999998 4.535251999999998 15.061576999999993 0 0 0
32 0 8 -1.05 8.701582 2.415252 17.18157800000001 0 0 0
33 0 8 -1.05 2.3415820000000003 2.3415820000000003 15.061576999999993 0 0 0
36 0 8 -1.05 8.701582 4.461582 15.135248000000011 0 0 0
40 0 8 -1.05 2.415252 8.701582 17.18157800000001 0 0 0
46 2 7 1.575 2.3784170000000002 0.258417 15.098413000000008 0 0 0
47 2 7 1.575 4.498416999999998 6.618416999999998 15.098413000000008 0 0 0
50 2 7 1.575 0.258417 2.3784170000000002 15.098413000000008 0 0 0
53 2 7 1.575 6.618416999999998 4.498416999999998 15.098413000000008 0 0 0
57 1 7 1.575 3.4384170000000003 3.4384170000000003 16.15841300000001 0 0 0
63 1 7 1.575 7.678417 7.678417 16.15841300000001 0 0 0
181 0 1 0.731 1.397782043815062 5.600757767046846 19.767033860344448 0 0 0
182 0 2 -0.123 1.4028433645152012 5.617288420229021 20.86760962399453 0 0 0
183 0 3 -0.804 2.2043759645755117 6.334382984527426 19.179127915560937 0 0 0
184 0 3 -0.804 0.589595007484363 4.850776735015751 19.210392142627345 0 0 0
185 0 10 0.425 5.0825135793241465 6.612092987494792 17.77876771936144 0 0 0
617 1 7 1.575 5.5584169999999995 9.798417 14.038412999999998 0 0 0
557 2 7 1.575 6.618416999999998 10.858417000000001 17.218413000000005 0 0 0
559 2 7 1.575 4.498416999999998 8.738417 17.218413000000005 0 0 0
560 0 8 -1.05 6.581580999999999 8.775252 17.25524800000001 0 0 0
562 0 8 -1.05 4.535251999999998 10.821582000000001 17.25524800000001 0 0 0
573 0 8 -1.05 6.655251999999998 10.895252000000001 15.135248000000011 0 0 0
578 0 8 -1.05 0.295252 8.775252 15.061576999999993 0 0 0
587 0 8 -1.05 8.701582 10.895252000000001 17.18157800000001 0 0 0
588 0 8 -1.05 2.3415820000000003 10.821582000000001 15.061576999999993 0 0 0
601 2 7 1.575 2.3784170000000002 8.738417 15.098413000000008 0 0 0
605 2 7 1.575 0.258417 10.858417000000001 15.098413000000008 0 0 0
612 1 7 1.575 3.4384170000000003 11.918417000000002 16.15841300000001 0 0 0
1125 0 8 -1.05 4.461582 0.2215820000000015 15.135248000000011 0 1 0
1150 0 8 -1.05 2.415252 0.2215820000000015 17.18157800000001 0 1 0
245 1 7 1.575 9.798417 5.5584169999999995 14.038412999999998 0 0 0
186 2 7 1.575 8.738417 4.498416999999998 17.218413000000005 0 0 0
188 2 7 1.575 10.858417000000001 6.618416999999998 17.218413000000005 0 0 0
191 0 8 -1.05 8.775252 6.581580999999999 17.25524800000001 0 0 0
193 0 8 -1.05 10.821582000000001 4.535251999999998 17.25524800000001 0 0 0
208 0 8 -1.05 8.775252 0.295252 15.061576999999993 0 0 0
211 0 8 -1.05 10.895252000000001 6.655251999999998 15.135248000000011 0 0 0
218 0 8 -1.05 10.821582000000001 2.3415820000000003 15.061576999999993 0 0 0
225 0 8 -1.05 10.895252000000001 8.701582 17.18157800000001 0 0 0
231 2 7 1.575 10.858417000000001 0.258417 15.098413000000008 0 0 0
235 2 7 1.575 8.738417 2.3784170000000002 15.098413000000008 0 0 0
242 1 7 1.575 11.918417000000002 3.4384170000000003 16.15841300000001 0 0 0
366 0 1 0.731 9.911505566354712 5.633567471900999 19.770138299228766 0 0 0
367 0 2 -0.123 9.920226410854886 5.666272585265266 20.870369608755926 0 0 0
368 0 3 -0.804 10.717108398795927 6.3580015193028165 19.171588767291436 0 0 0
369 0 3 -0.804 9.098842089186352 4.880126755308903 19.22359351437401 0 0 0
763 0 8 -1.05 8.775252 8.775252 15.061576999999993 0 0 0
773 0 8 -1.05 10.821582000000001 10.821582000000001 15.061576999999993 0 0 0
786 2 7 1.575 10.858417000000001 8.738417 15.098413000000008 0 0 0
790 2 7 1.575 8.738417 10.858417000000001 15.098413000000008 0 0 0
797 1 7 1.575 11.918417000000002 11.918417000000002 16.15841300000001 0 0 0
1335 0 8 -1.05 10.895252000000001 0.2215820000000015 17.18157800000001 0 1 0
402 0 8 -1.05 0.2215820000000015 2.415252 17.18157800000001 1 0 0
406 0 8 -1.05 0.2215820000000015 4.461582 15.135248000000011 1 0 0
957 0 8 -1.05 0.2215820000000015 10.895252000000001 17.18157800000001 1 0 0
679 0 8 -1.05 2.3415820000000003 13.015251999999998 -8.184751999999996 0 0 0
692 0 8 -1.05 2.415252 17.181582 -8.258422000000003 0 0 0
699 0 8 -1.05 0.295252 15.061581 -8.184751999999996 0 0 0
711 2 7 1.575 2.3784170000000002 15.098416999999998 -8.221587 0 0 0
712 0 8 -1.05 4.461582 15.135251999999998 -8.258422000000003 0 0 0
719 2 7 1.575 0.258417 12.978416999999999 -8.221587 0 0 0
721 0 8 -1.05 6.655251999999998 12.941582 -8.258422000000003 0 0 0
730 1 7 1.575 5.5584169999999995 14.038416999999999 -7.161586999999997 0 0 0
676 0 8 -1.05 6.581580999999999 15.061581 -1.8984230000000082 0 0 0
680 0 8 -1.05 8.701582 15.135251999999998 -4.0184219999999975 0 0 0
682 0 8 -1.05 4.461582 17.181582 -1.8247519999999966 0 0 0
684 0 8 -1.05 2.3415820000000003 15.061581 -6.138421999999995 0 0 0
688 0 8 -1.05 6.581580999999999 13.015251999999998 -3.944752000000001 0 0 0