LAMMPS data file via write_data, version 17 Feb 2022, timestep = 20

1665 atoms
10 atom types
36 bonds
6 bond types
54 angles
6 angle types
0 dihedrals
2 dihedral types
9 impropers
2 improper types

0 25.44 xlo xhi
0 25.44 ylo yhi
-28.258421897888184 40.90800094604492 zlo zhi

Masses

1 12.011
2 1.008
3 15.9994
4 15.9994
5 1.008
6 55.845
7 55.845
8 15.9994
9 15.9994
10 1.008

Pair Coeffs # lj/cut/coul/long

1 0.0988 3.31521
2 0.0161 2.4473
3 0.1463 3.04812
4 0.093 3.24287
5 0.0047 0.537925
6 9.0298e-07 4.9062
7 9.0298e-07 4.9062
8 0.1554 3.16554
9 0.1554 3.16554
10 0 0

Bond Coeffs # harmonic

1 361.8 1.105
2 652.57 1.218
3 383.13 1.351
4 563.51 0.973
5 554.135 1
6 0 2.08

Angle Coeffs # harmonic

1 51.617 106.55
2 65.93 123.65
3 65.262 109.49
4 115.745 122.1
5 118.817 130.25
6 30 109.47

Dihedral Coeffs # fourier

1 1 2.3 2 180
2 2 2.3 2 180 1.9 1 0

Improper Coeffs # cvff

1 10.5 -1 2
2 10.5 -1 2

Atoms # full

124 0 8 -1.05 2.2212304555863023 4.65613865337867 -8.084557050602623 0 0 0
131 0 8 -1.05 4.652682674594517 2.2166450052794002 -8.095742160112252 0 0 0
144 0 8 -1.05 0.41387595055029086 6.461351666482127 -8.084766400197427 0 0 0
153 0 8 -1.05 6.461941216377912 0.41001131941651103 -8.087474681770212 0 0 0
156 2 7 1.575 2.388525652925515 6.630835558652046 -8.17188353424018 0 0 0
157 0 8 -1.05 4.361458748061002 6.75354855825892 -8.195698191135548 0 0 0
158 2 7 1.575 6.629226740509806 2.385265045189681 -8.175008547700202 0 0 0
164 2 7 1.575 0.24699494965897403 4.486192047596391 -8.170880299778078 0 0 0
166 0 8 -1.05 6.75393410144261 4.36096178009791 -8.191880090756833 0 0 0
169 1 7 1.575 1.3174051060330148 1.3162568695153585 -7.293277567298587 0 0 0
175 1 7 1.575 5.555761306984163 5.558230881010408 -7.293055761865706 0 0 0
177 2 7 1.575 4.486596980563481 0.24196300434288154 -8.17496577591644 0 0 0
122 0 8 -1.05 2.4372927553957315 2.442323340016859 -6.125243728768984 0 0 0
128 0 8 -1.05 4.564130757706454 0.3252649673651892 -6.134825340595928 0 0 0
129 0 8 -1.05 2.3074252108272946 6.549740630462528 -6.1281061421137295 0 0 0
138 0 8 -1.05 6.535407888955119 2.3060830741189373 -6.138810368413541 0 0 0
143 0 8 -1.05 4.434194037594629 4.433965623226262 -6.123444972871859 0 0 0
148 0 8 -1.05 6.680430203669874 6.678605055235535 -6.12359548193156 0 0 0
149 0 8 -1.05 0.32770224197895437 4.569473335461733 -6.127940975341762 0 0 0
160 2 7 1.575 6.650190061849081 0.22248018518263388 -6.121410983331786 0 0 0
163 2 7 1.575 4.459594498506582 2.40831785583685 -6.131442745514034 0 0 0
167 2 7 1.575 0.22619483582739688 6.6511470887848985 -6.121750891246549 0 0 0
168 2 7 1.575 2.410586155027375 4.466664077149476 -6.1214006416798865 0 0 0
1247 0 8 -1.05 2.5123968085261197 0.12090548524870064 -8.195865281133631 0 1 0
515 0 8 -1.05 0.12328979506695018 2.513341337145401 -8.194707553365369 1 0 0
1616 0 8 -1.05 0.1949576094021982 0.1947718543545604 -6.121483001465794 1 1 0
145 0 8 -1.05 8.606400979915712 2.5128143251321835 -8.187206524667916 0 0 0
1246 0 8 -1.05 8.674785935270203 0.1857022241826998 -6.122893711990442 0 1 0
309 0 8 -1.05 10.708635423340857 4.649442189023452 -8.086999502923192 0 0 0
329 0 8 -1.05 8.900186976196128 6.4558104866140384 -8.085691965926523 0 0 0
341 2 7 1.575 10.871060208269311 6.629752539252895 -8.173867005922508 0 0 0
349 2 7 1.575 8.725944281847562 4.485020068078526 -8.176110513097788 0 0 0
354 1 7 1.575 9.796860040040507 1.3229439248480925 -7.2706871927958385 0 0 0
307 0 8 -1.05 10.941494945770335 2.449013145314661 -6.114580587227131 0 0 0
314 0 8 -1.05 10.797012425213069 6.531352056528045 -6.130743857422225 0 0 0
334 0 8 -1.05 8.815718193390333 4.5661581747212745 -6.128626285479675 0 0 0
352 2 7 1.575 8.703957426248097 6.657088309519686 -6.123229136767643 0 0 0
353 2 7 1.575 10.867271606405502 4.4620549404437755 -6.128088019392409 0 0 0
1432 0 8 -1.05 10.99366829018078 0.12707190356191184 -8.176638374801039 0 1 0
316 0 8 -1.05 13.136232122947098 2.2328243154932905 -8.086140553046116 0 0 0
338 0 8 -1.05 14.936595466178456 0.41976826030892184 -8.086070932446484 0 0 0
342 0 8 -1.05 12.845002512461482 6.746207123055244 -8.180666822627149 0 0 0
343 2 7 1.575 15.114314470478767 2.390183859215192 -8.177200852304475 0 0 0
351 0 8 -1.05 15.229385747128228 4.363304325930115 -8.177442111272137 0 0 0
360 1 7 1.575 14.040767787431585 5.559324268986049 -7.27067496616896 0 0 0
362 2 7 1.575 12.965521248102252 0.25082469693713644 -8.172631976185402 0 0 0
313 0 8 -1.05 13.046420785196716 0.3468968707711511 -6.125247641868551 0 0 0
323 0 8 -1.05 15.022922466942473 2.312930171139005 -6.1314496484186085 0 0 0
328 0 8 -1.05 12.920042480174525 4.4475915468367235 -6.044663941515828 0 0 0
333 0 8 -1.05 15.165569283362048 6.684411405711679 -6.11273164437047 0 0 0
345 2 7 1.575 15.13500306324352 0.22521608976347676 -6.122889345989096 0 0 0
348 2 7 1.575 12.952198093464489 2.3984093404806255 -6.12684052256963 0 0 0
330 0 8 -1.05 17.083867336886897 2.515653101174951 -8.19551687923039 0 0 0
1431 0 8 -1.05 17.15458275936795 0.20367559297900295 -6.122018853855355 0 1 0
494 0 8 -1.05 19.181013022695026 4.657032602638468 -8.086805780686031 0 0 0
501 0 8 -1.05 21.615821106291026 2.2225586334125507 -8.08541654594949 0 0 0
514 0 8 -1.05 17.373748548113173 6.462756048056703 -8.082400792061586 0 0 0
523 0 8 -1.05 23.42223669482201 0.41600907735786163 -8.084778210506377 0 0 0
526 2 7 1.575 19.34982152539464 6.631753256972829 -8.17272829328668 0 0 0
527 0 8 -1.05 21.32303360715662 6.754280006061409 -8.193663989939953 0 0 0
528 2 7 1.575 23.590789445338466 2.390854858336339 -8.171946738813704 0 0 0
534 2 7 1.575 17.206387561571894 4.489142460699286 -8.169984712686226 0 0 0
536 0 8 -1.05 23.713737636929324 4.363808316752517 -8.193422810321309 0 0 0
539 1 7 1.575 18.28185173576762 1.3216267086928402 -7.292658092880474 0 0 0
545 1 7 1.575 22.51989037332373 5.560244249552954 -7.2917009364973095 0 0 0
547 2 7 1.575 21.44775896296825 0.24783419317089292 -8.17242872453118 0 0 0
492 0 8 -1.05 19.403481523565947 2.444163969310241 -6.122913615627071 0 0 0
498 0 8 -1.05 21.528993316853793 0.32914805483289183 -6.128834879195743 0 0 0
499 0 8 -1.05 19.270355996856235 6.549171172610015 -6.129053663398794 0 0 0
508 0 8 -1.05 23.509024535989507 2.308622304830132 -6.128074162608722 0 0 0
513 0 8 -1.05 21.397688275476785 4.436576819057118 -6.122189275242868 0 0 0
518 0 8 -1.05 23.64155277462229 6.682533776504137 -6.120408939598371 0 0 0
519 0 8 -1.05 17.29182782153758 4.568414855288807 -6.128679546813478 0 0 0
530 2 7 1.575 23.611449709943916 0.2264664543153937 -6.122107243446321 0 0 0
533 2 7 1.575 21.427572357555118 2.412034662846799 -6.122492333110807 0 0 0
537 2 7 1.575 17.19050769138563 6.651234495767851 -6.117831294763205 0 0 0
538 2 7 1.575 19.375018521013125 4.467299338720718 -6.123609806617751 0 0 0
1617 0 8 -1.05 19.474333831715878 0.12631533727356942 -8.197000628867224 0 1 0
137 0 8 -1.05 2.5120405286561303 8.603911956786844 -8.192999479617415 0 0 0
686 0 8 -1.05 4.654503139465442 10.701745870642943 -8.0844952796246 0 0 0
708 0 8 -1.05 6.459670749665384 8.893158814120005 -8.085494824350638 0 0 0
713 2 7 1.575 6.631650820710512 10.867593611316986 -8.17267401943807 0 0 0
724 1 7 1.575 1.3202137381594583 9.79929571970576 -7.287432096723612 0 0 0
732 2 7 1.575 4.485403191997847 8.726978727565 -8.171063785896454 0 0 0
677 0 8 -1.05 2.444683078874579 10.921047066633049 -6.116853218944385 0 0 0
683 0 8 -1.05 4.5662854779751525 8.809177472764087 -6.128342270374677 0 0 0
693 0 8 -1.05 6.544095565105619 10.7898386839435 -6.131328748479835 0 0 0
715 2 7 1.575 6.652136106516282 8.705973457752814 -6.1205452863280145 0 0 0
718 2 7 1.575 4.468930795985394 10.88803317911286 -6.119225342630084 0 0 0
506 0 8 -1.05 0.19547747510529687 8.675706446980524 -6.119909216903193 1 0 0
1070 0 8 -1.05 0.12377052353180236 10.99337016348075 -8.189537699752321 1 0 0
679 0 8 -1.05 2.221609570195344 13.13456334225421 -8.083625937438073 0 0 0
699 0 8 -1.05 0.41591765093378874 14.941298504116581 -8.08340488882618 0 0 0
711 2 7 1.575 2.390844176181724 15.109390295784602 -8.170611504659837 0 0 0
712 0 8 -1.05 4.3635181893614945 15.23136109477569 -8.193569460468261 0 0 0
719 2 7 1.575 0.24685074287237485 12.966614236084483 -8.17073601958695 0 0 0
721 0 8 -1.05 6.754784135045256 12.841124414315711 -8.1978142264952 0 0 0
730 1 7 1.575 5.560096219810419 14.03572190477445 -7.293303312743936 0 0 0
684 0 8 -1.05 2.3098085603268035 15.027249124011128 -6.125714472859026 0 0 0
698 0 8 -1.05 4.437145503400275 12.913494938960783 -6.119636324198201 0 0 0
703 0 8 -1.05 6.6796030812686045 15.154030442446402 -6.115482677506244 0 0 0
704 0 8 -1.05 0.3294543558692442 13.048601332152451 -6.126251339248547 0 0 0
722 2 7 1.575 0.2268052970354565 15.130834056087421 -6.121811390671917 0 0 0
723 2 7 1.575 2.4125865904780914 12.944829775419592 -6.121777718302159 0 0 0
136 0 8 -1.05 8.670149320594664 8.671661760087643 -6.125059698653458 0 0 0
700 0 8 -1.05 8.605898856909901 10.990543773230883 -8.190407176477814 0 0 0
322 0 8 -1.05 10.996124958810507 8.60050332669591 -8.186766199007902 0 0 0
909 1 7 1.575 9.802234914398449 9.798603980925876 -7.279814754444321 0 0 0
862 0 8 -1.05 10.925678541718085 10.928087913710534 -6.1222016125199685 0 0 0
864 0 8 -1.05 10.70369615886344 13.137814831956666 -8.09016423783361 0 0 0
884 0 8 -1.05 8.893891108454929 14.942841328756508 -8.086834952137174 0 0 0
896 2 7 1.575 10.867196880320527 15.11407670987332 -8.169899196467213 0 0 0
904 2 7 1.575 8.729234788830455 12.965855867235183 -8.176012513873959 0 0 0
869 0 8 -1.05 10.790426277411798 15.024804236281367 -6.133696612728478 0 0 0
889 0 8 -1.05 8.80780582118098 13.049594487096241 -6.1365798768741735 0 0 0
907 2 7 1.575 8.707926487272362 15.127118774010825 -6.1184644423208185 0 0 0
908 2 7 1.575 10.891275878538217 12.944005289501316 -6.122216289733932 0 0 0
871 0 8 -1.05 13.136884798090634 10.699712665761826 -8.08223063415517 0 0 0
893 0 8 -1.05 14.945370340540048 8.893638046623398 -8.0875125222265 0 0 0
898 2 7 1.575 15.11000788050523 10.870991499337295 -8.17127414210735 0 0 0
917 2 7 1.575 12.969473864474736 8.725140271744445 -8.168635503180461 0 0 0
868 0 8 -1.05 13.059211546795256 8.802228836144772 -6.131142337773002 0 0 0
878 0 8 -1.05 15.033017884102994 10.787424286625138 -6.1299069142634774 0 0 0
900 2 7 1.575 15.13462821573302 8.709247900436685 -6.12227277905877 0 0 0
903 2 7 1.575 12.944181610480845 10.889803657825325 -6.116277940429283 0 0 0
897 0 8 -1.05 12.841849829972544 15.237431110821138 -8.197131986318247 0 0 0
906 0 8 -1.05 15.233742278625414 12.844913368973925 -8.195791535274097 0 0 0
915 1 7 1.575 14.034906304975843 14.037640874107874 -7.294181120213894 0 0 0
883 0 8 -1.05 12.917673860763072 12.916495931469386 -6.120561411399264 0 0 0
888 0 8 -1.05 15.157501991406544 15.163796410070658 -6.122124251072615 0 0 0
321 0 8 -1.05 17.15840639586777 8.674037076429805 -6.11557662085968 0 0 0
885 0 8 -1.05 17.083945830464785 10.99365071681309 -8.192821560399265 0 0 0
507 0 8 -1.05 19.47263430643206 8.604298637054496 -8.192620346165098 0 0 0
1056 0 8 -1.05 21.61508065190636 10.701816809041862 -8.084338461491875 0 0 0
1078 0 8 -1.05 23.420918880436094 8.89502173519733 -8.084060085998685 0 0 0
1083 2 7 1.575 23.590410036785592 10.869550645745697 -8.170931748200381 0 0 0
1094 1 7 1.575 18.27758102067509 9.798361409164741 -7.2884275332930475 0 0 0
1102 2 7 1.575 21.446093155676856 8.72722710014783 -8.170720322589645 0 0 0
1047 0 8 -1.05 19.40113677271486 10.921728495544489 -6.120141530942759 0 0 0
1053 0 8 -1.05 21.528294333095783 8.808981320466694 -6.127150500834374 0 0 0
1063 0 8 -1.05 23.50744198309199 10.788261515859796 -6.1271711245490925 0 0 0
1085 2 7 1.575 23.611605525424512 8.706050545233428 -6.121945829314693 0 0 0
1088 2 7 1.575 21.425244555084294 10.89079139989271 -6.121999433974813 0 0 0
1049 0 8 -1.05 19.180853875571128 13.135676208393416 -8.083844077900755 0 0 0
1069 0 8 -1.05 17.37417522977843 14.942112836125814 -8.082678716688898 0 0 0
1081 2 7 1.575 19.34943599121303 15.10994189152371 -8.169944548784091 0 0 0
1082 0 8 -1.05 21.32276967630887 15.233015576195431 -8.19068171608988 0 0 0
1089 2 7 1.575 17.206238319072536 12.966598265898645 -8.170107267280246 0 0 0
1091 0 8 -1.05 23.71360774851295 12.842873030957241 -8.19245483531947 0 0 0
1100 1 7 1.575 22.51844011574432 14.037565273905818 -7.289709897110912 0 0 0
1054 0 8 -1.05 19.266869374590186 15.02796979715244 -6.126019125709254 0 0 0
1068 0 8 -1.05 21.394800394811455 12.915057610231225 -6.120011067865191 0 0 0
1073 0 8 -1.05 23.642104150291548 15.160890073132308 -6.121005177715743 0 0 0
1074 0 8 -1.05 17.287961121125292 13.048194781095033 -6.12566086985811 0 0 0
1092 2 7 1.575 17.183313690546527 15.129569187147368 -6.119765265091279 0 0 0
1093 2 7 1.575 19.37052614242898 12.945294614211534 -6.121956812215682 0 0 0
692 0 8 -1.05 2.5131391662938545 17.081885063732884 -8.195668247217723 0 0 0
1234 0 8 -1.05 2.2213169498035454 21.61378077059567 -8.084712410217042 0 0 0
1241 0 8 -1.05 4.655488992129033 19.17952338755834 -8.0875496281669 0 0 0
1254 0 8 -1.05 0.41481118035912345 23.42054051945406 -8.08509425013964 0 0 0
1263 0 8 -1.05 6.461874552483999 17.371947650721825 -8.083830452628895 0 0 0
1266 2 7 1.575 2.3895742388149492 23.588605368025647 -8.171487714022144 0 0 0
1267 0 8 -1.05 4.362406074943338 23.709393504660774 -8.197221502527594 0 0 0
1268 2 7 1.575 6.632180304428926 19.34536425042502 -8.168850095633372 0 0 0
1274 2 7 1.575 0.24672370204969213 21.445792289947395 -8.171813054984657 0 0 0
1276 0 8 -1.05 6.75390300212203 21.319355593243355 -8.198381921043733 0 0 0
1279 1 7 1.575 1.3192115400488074 18.276980130585564 -7.291465646129526 0 0 0
1285 1 7 1.575 5.5559059257041685 22.51325130265663 -7.294226094777924 0 0 0
1287 2 7 1.575 4.486849134793287 17.204872578268546 -8.17312247426411 0 0 0
1232 0 8 -1.05 2.4413008490047794 19.399077004873728 -6.120655547854226 0 0 0
1238 0 8 -1.05 4.56588802450832 17.285942934791176 -6.131071862677062 0 0 0
1239 0 8 -1.05 2.308216467163435 23.507170579260954 -6.1276577802089855 0 0 0
1248 0 8 -1.05 6.542446310797711 19.268302002136092 -6.130880936259828 0 0 0
1253 0 8 -1.05 4.435251044590743 21.391032924330787 -6.121637401214325 0 0 0
1258 0 8 -1.05 6.68139310654835 23.63305508435853 -6.123292700981147 0 0 0
1259 0 8 -1.05 0.3280629808422672 21.528539454434412 -6.128161894370644 0 0 0
1270 2 7 1.575 6.650187058960396 17.181552632299226 -6.118883633220276 0 0 0
1273 2 7 1.575 4.465292878213714 19.366748505922956 -6.122131083600816 0 0 0
1277 2 7 1.575 0.2259856245500823 23.611116348302822 -6.122641739348877 0 0 0
1278 2 7 1.575 2.4117210208207855 21.42392021550835 -6.122060523732221 0 0 0
1061 0 8 -1.05 0.19583957047345826 17.15442187334909 -6.121018027685129 1 0 0
1625 0 8 -1.05 0.12282884453691005 19.472582938890923 -8.19164123091236 1 0 0
691 0 8 -1.05 8.667063707070707 17.144026591245627 -6.115258274953563 0 0 0
1255 0 8 -1.05 8.609685314391434 19.471449257283798 -8.171499120545354 0 0 0
877 0 8 -1.05 10.992903003122036 17.092044450499625 -8.173542846680004 0 0 0
1419 0 8 -1.05 10.702584962321813 21.609402220370097 -8.092719165047434 0 0 0
1439 0 8 -1.05 8.898522780961372 23.41921512423141 -8.090189332356625 0 0 0
1451 2 7 1.575 10.869386397980561 23.590582680204516 -8.17582271477723 0 0 0
1459 2 7 1.575 8.724422270708331 21.44580561972368 -8.178810751774764 0 0 0
1464 1 7 1.575 9.79726913784048 18.276615801512484 -7.256492125935938 0 0 0
1417 0 8 -1.05 10.921872774189504 19.400619472597125 -6.054030597119173 0 0 0
1424 0 8 -1.05 10.790143032077278 23.49354976782313 -6.131009646926747 0 0 0
1444 0 8 -1.05 8.812458380620944 21.52905320678636 -6.136444778063796 0 0 0
1462 2 7 1.575 8.701662009074985 23.61133931423291 -6.125669660301734 0 0 0
1463 2 7 1.575 10.887950592700308 21.4381722057761 -6.132319582468672 0 0 0
1426 0 8 -1.05 13.131124774990012 19.185607447525364 -8.085808957912224 0 0 0
1448 0 8 -1.05 14.940651576107308 17.38068699203046 -8.089726480795793 0 0 0
1452 0 8 -1.05 12.84317140538285 23.71565692785657 -8.177101102491457 0 0 0
1453 2 7 1.575 15.11037308916487 19.353192187503705 -8.177338165890085 0 0 0
1461 0 8 -1.05 15.231563974523361 21.325349962963625 -8.18865242547347 0 0 0
1470 1 7 1.575 14.03930055716714 22.516049733622953 -7.275120315430061 0 0 0
1472 2 7 1.575 12.96626244387167 17.2080856833451 -8.17557479458825 0 0 0
1423 0 8 -1.05 13.053169181646577 17.292896430798216 -6.131747950011712 0 0 0
1433 0 8 -1.05 15.023882612742451 19.26723127397529 -6.129029759167405 0 0 0
1438 0 8 -1.05 12.902026998884615 21.388882548006546 -6.119165609355761 0 0 0
1443 0 8 -1.05 15.160945978631492 23.65127991362083 -6.122076641445144 0 0 0
1455 2 7 1.575 15.133589016346624 17.183941027033836 -6.127094483503265 0 0 0
1458 2 7 1.575 12.96446055965601 19.37250677369768 -6.126644437439743 0 0 0
876 0 8 -1.05 17.154434350531375 17.156118738387313 -6.121825657633671 0 0 0
1440 0 8 -1.05 17.082704670580448 19.476118510821994 -8.190319522691203 0 0 0
1062 0 8 -1.05 19.473447830768674 17.082932448294613 -8.194231461269354 0 0 0
1604 0 8 -1.05 19.18342319198718 21.619789385205696 -8.093718106026278 0 0 0
1611 0 8 -1.05 21.614627552590964 19.18092309127637 -8.084219987519173 0 0 0
1624 0 8 -1.05 17.37486974956482 23.427245177895173 -8.085641317533655 0 0 0
1633 0 8 -1.05 23.421432492302085 17.375257203763265 -8.085171946264833 0 0 0
1636 2 7 1.575 19.350251930408696 23.59412458099371 -8.174028205765477 0 0 0
1637 0 8 -1.05 21.323962214408727 23.715213665894396 -8.195331824987294 0 0 0
1638 2 7 1.575 23.589699536656603 19.350264397353577 -8.171077756946909 0 0 0
1644 2 7 1.575 17.20748823514211 21.45174329295284 -8.173977851836861 0 0 0
1646 0 8 -1.05 23.71349786388685 21.322946372791353 -8.194564316108048 0 0 0
1649 1 7 1.575 18.279379307177628 18.277992006999572 -7.291995882565289 0 0 0
1655 1 7 1.575 22.519843493715015 22.52033886602669 -7.293420658028012 0 0 0
1657 2 7 1.575 21.44693119098197 17.20614226024865 -8.17149414421474 0 0 0
1602 0 8 -1.05 19.400707037649205 19.402593741068117 -6.122044768804438 0 0 0
1608 0 8 -1.05 21.52840240324437 17.287918106585305 -6.127357402120736 0 0 0
1609 0 8 -1.05 19.272023214965788 23.51072126526951 -6.132822143495539 0 0 0
1618 0 8 -1.05 23.50767937065066 19.267877686905088 -6.127024462263236 0 0 0
1623 0 8 -1.05 21.398296478966564 21.39546508666585 -6.123957288684707 0 0 0
1628 0 8 -1.05 23.64112380037216 23.642023385863208 -6.121192071011506 0 0 0
1629 0 8 -1.05 17.300931706558124 21.531133017327917 -6.136828091108944 0 0 0
1640 2 7 1.575 23.61172759941018 17.185241200228095 -6.123164627018651 0 0 0
1643 2 7 1.575 21.425595771696067 19.37089459191845 -6.1212362585678655 0 0 0
1647 2 7 1.575 17.185737657321088 23.614590021372422 -6.120121915043786 0 0 0
1648 2 7 1.575 19.37613066430348 21.428483192757707 -6.129815959864018 0 0 0
121 0 8 -1.05 6.515162716708196 6.536604787597374 -1.865649253318005 0 0 0
126 0 8 -1.05 0.2797735128725607 2.3541147026054015 -3.8660956209603605 0 0 0
130 0 8 -1.05 6.602402209629447 2.4836889258911 -1.8507105089708877 0 0 0
133 0 8 -1.05 6.590539608056955 4.532706757924674 -3.8661122678238455 0 0 0
134 0 8 -1.05 2.403238972113658 4.471882559882779 -4.118168797273343 0 0 0
135 0 8 -1.05 0.3357700771088226 0.33763005853899053 -1.8691137067917707 0 0 0
139 0 8 -1.05 2.4506299682500745 6.701798663361617 -1.8620284709077166 0 0 0
140 0 8 -1.05 2.352887503470806 0.27992545336451496 -3.867863614420675 0 0 0
142 0 8 -1.05 4.568368957879825 4.585506462728983 -1.8578793301712802 0 0 0
147 0 8 -1.05 2.2964281744960795 2.297622143215433 -1.8691934494049514 0 0 0
151 0 8 -1.05 4.514045267337844 6.594662491246362 -3.865226369679216 0 0 0
152 0 8 -1.05 4.465980670443758 2.40140963958342 -4.128852344105083 0 0 0
155 2 6 1.05 4.504539464828403 4.5027468815596565 -3.991761974286923 0 0 0
159 2 6 1.05 0.26568116981475887 0.26519825923703433 -3.9974729352412313 0 0 0
161 2 7 1.575 2.376294864618715 0.25871767077190555 -1.8657525964245447 0 0 0
162 2 7 1.575 4.489788197852051 6.617912827213063 -1.8639443652142678 0 0 0
165 2 7 1.575 0.2581042564743197 2.3784180281878284 -1.8653292559263694 0 0 0
170 1 7 1.575 7.65726610879011 7.659731118432959 -0.786363729942401 0 0 0
171 1 7 1.575 5.553939791248934 1.31327772902051 -2.9622669434665374 0 0 0
172 1 7 1.575 3.437784222735635 7.679329497001695 -5.022215134293697 0 0 0
173 1 7 1.575 1.320472575081293 5.559873821873749 -2.9510808354404574 0 0 0
174 1 7 1.575 7.649737059024036 3.4505680114237416 -5.037486043570102 0 0 0
176 1 7 1.575 3.439886591266549 3.4306661615098784 -0.7905728894019111 0 0 0
178 2 6 1.05 2.370069759438066 2.3702730551137696 -3.998770605151409 0 0 0
179 2 6 1.05 6.611078267690406 6.615942221088596 -3.9912551293592977 0 0 0
180 2 7 1.575 6.611774450419757 4.487064636608319 -1.8700776981172982 0 0 0
1237 0 8 -1.05 4.415850527145802 0.175607144138523 -1.8729656173897358 0 1 0
1251 0 8 -1.05 6.637709018492512 0.21883252189898464 -4.122318919076203 0 1 0
495 0 8 -1.05 0.23327369135270695 6.645499789234027 -4.1174454146062995 1 0 0
520 0 8 -1.05 0.18044587724658664 4.421824838622793 -1.869808364479309 1 0 0
66 0 8 -1.05 2.452913423281896 2.4508070020611754 2.37863081201589 0 0 0
68 0 8 -1.05 2.3515880865405747 4.519820300699913 0.3653643461962222 0 0 0
72 0 8 -1.05 4.579916468145484 0.33660932058374166 2.38063363533588 0 0 0
73 0 8 -1.05 2.292400768488012 6.538282670837702 2.3735186538761295 0 0 0
75 0 8 -1.05 4.523247504924984 2.34919478836107 0.37214759145134874 0 0 0
81 0 8 -1.05 6.529398491949856 2.2779411250713455 2.3639899752648876 0 0 0
86 0 8 -1.05 4.4054879002661025 4.409978466600782 2.367678402149421 0 0 0
87 0 8 -1.05 0.28135766262269923 6.595714324216922 0.37052293427229205 0 0 0
90 0 8 -1.05 6.635146838792509 6.734826792079209 2.3788169735186298 0 0 0
91 0 8 -1.05 0.334542418242909 4.576219891587007 2.3688912919680036 0 0 0
95 0 8 -1.05 6.61162551928615 0.26403513531008166 0.3694115609550675 0 0 0
98 2 6 1.05 2.379605954087403 6.616949933339226 0.25777288601107595 0 0 0
99 2 6 1.05 6.620185340321951 2.3516713917117644 0.22944345321423648 0 0 0
101 2 7 1.575 6.613755212036363 0.24321303301046143 2.3650637908023593 0 0 0
104 2 7 1.575 4.496925301927345 2.378965864336345 2.378291263348331 0 0 0
105 2 6 1.05 0.2610421283481195 4.499524023647716 0.24991903308906016 0 0 0
107 2 7 1.575 0.25868178204277315 6.612113590331779 2.3807130696994605 0 0 0
108 2 7 1.575 2.377626382561981 4.494088378390279 2.3772087356870393 0 0 0
112 2 6 1.05 4.505941904657996 0.2580076288614732 0.24915600622772427 0 0 0
114 1 7 1.575 5.555560457488662 5.551506167855185 1.3127079184435575 0 0 0
120 1 7 1.575 1.3178997538868031 1.3169999114424684 1.2967808360966102 0 0 0
123 0 8 -1.05 6.7094641028351365 4.489959038866092 0.17239201216284994 0 0 0
132 0 8 -1.05 4.479829772177825 6.6431724770047875 0.14158262494794105 0 0 0
1264 0 8 -1.05 2.403548136186578 0.23134972538313314 0.13856546421644034 0 1 0
516 0 8 -1.05 0.2304368912121878 2.4011748761603586 0.13821070580354344 1 0 0
1560 0 8 -1.05 0.17745201185614093 0.17882346990515083 2.3756345546105524 1 1 0
125 0 8 -1.05 8.715311126268238 6.6276335339655885 -4.12557287899936 0 0 0
150 0 8 -1.05 8.653086443587984 4.51346161272326 -1.780325772260104 0 0 0
311 0 8 -1.05 8.773114630515314 2.358976602489475 -3.958370509721193 0 0 0
319 0 8 -1.05 10.965988705879194 4.486635668296575 -4.106821894642961 0 0 0
320 0 8 -1.05 8.844576033167007 0.24596378484126696 -1.8776050861074902 0 0 0
324 0 8 -1.05 10.97346317152339 6.615696691158201 -1.8540296060081243 0 0 0
325 0 8 -1.05 10.850556069117172 0.26760501023277233 -3.87333312791522 0 0 0
332 0 8 -1.05 10.85385793635699 2.274998529540965 -1.8829144000017812 0 0 0
344 2 6 1.05 8.7401695261451 0.28019264128684557 -3.9772981944652943 0 0 0
346 2 7 1.575 10.843225510536712 0.2793125517106967 -1.8707237134912855 0 0 0
350 2 6 1.05 8.720162284882084 2.356222083985227 -1.886000480567239 0 0 0
357 1 7 1.575 11.923270532418247 7.676064117174666 -5.031667297035751 0 0 0
358 1 7 1.575 9.80030449141501 5.548974746756498 -2.952655727206226 0 0 0
361 1 7 1.575 11.904454299610741 3.465270063427209 -0.8056460039716669 0 0 0
363 2 6 1.05 10.816611918971804 2.3517584496203425 -3.976201426615938 0 0 0
146 0 8 -1.05 8.715207144259658 2.4948698035367576 0.22566133942333133 0 0 0
1190 0 8 -1.05 8.655650653049038 0.2713503279445815 2.4667205717512366 0 1 0
251 0 8 -1.05 10.874430811800956 2.479177118409906 2.402778184174535 0 0 0
253 0 8 -1.05 10.769837927068199 4.517584436792847 0.3436081762195859 0 0 0
258 0 8 -1.05 10.843649747698706 6.503290521119804 2.3526266780255924 0 0 0
272 0 8 -1.05 8.754455278666528 6.5083471505970065 0.28431924675772147 0 0 0
276 0 8 -1.05 8.827770038370518 4.491966647082832 2.290022329238058 0 0 0
283 2 6 1.05 10.836022771246464 6.638691355511084 0.24901145481354714 0 0 0
290 2 7 1.575 8.739219975150029 4.500391176979216 0.25162724192646696 0 0 0
292 2 6 1.05 8.737476151053322 6.61521686978189 2.386001760012788 0 0 0
293 2 7 1.575 10.861738239752349 4.492895005562486 2.370422558702741 0 0 0
305 1 7 1.575 9.80232861761054 1.321255404853005 1.293380079829476 0 0 0
1449 0 8 -1.05 10.867223589013602 0.14576347189265804 0.17521673419001174 0 1 0
306 0 8 -1.05 14.995101896821925 6.596470884948398 -1.8956104393893805 0 0 0
315 0 8 -1.05 15.20734020960458 2.374845955833553 -1.859920247140315 0 0 0
318 0 8 -1.05 14.981019444247293 4.518641848554286 -3.977022902612614 0 0 0
327 0 8 -1.05 12.973319451533115 4.585147942791895 -1.9663531994056933 0 0 0
336 0 8 -1.05 12.990470810259009 6.524122882943234 -3.9071541523037285 0 0 0
337 0 8 -1.05 12.966346905872683 2.48181989041304 -4.100334609983253 0 0 0
340 2 7 1.575 12.994264166936683 4.507336478623988 -3.9793024193171993 0 0 0
347 2 7 1.575 12.98068340837144 6.627071123662774 -1.8689171170371475 0 0 0
355 1 7 1.575 16.15223223825955 7.675436143050991 -0.7974520090507989 0 0 0
356 1 7 1.575 14.014094106653197 1.3096735901998364 -2.9383917204137244 0 0 0
359 1 7 1.575 16.164819775207704 3.4348851999100987 -5.0273558388818635 0 0 0
364 2 6 1.05 15.116693658056233 6.614074231061975 -3.9766555759628552 0 0 0
365 2 6 1.05 15.100003737871853 4.487587966794781 -1.866582374008168 0 0 0
1422 0 8 -1.05 12.879139649253363 0.161694980854957 -1.8558027920708322 0 1 0
1436 0 8 -1.05 15.108319736049776 0.24489328692871543 -4.124537916690625 0 1 0
257 0 8 -1.05 13.091592315350079 0.2524678478974351 2.3679314409290804 0 0 0
260 0 8 -1.05 13.008787998832275 2.3637172730871887 0.2884770654279933 0 0 0
266 0 8 -1.05 15.114522402238709 2.2596660043399663 2.3639609633318286 0 0 0
271 0 8 -1.05 12.894948157724514 4.507102927625243 2.469314102319269 0 0 0
275 0 8 -1.05 15.211862691675604 6.642917839658101 2.4011449053694136 0 0 0
280 0 8 -1.05 15.102439074557202 0.2727602772215231 0.3722736249334439 0 0 0
284 2 6 1.05 15.067154098215306 2.382955406445365 0.2498976315743317 0 0 0
286 2 7 1.575 15.08011317865639 0.2654060221036436 2.3645446558428103 0 0 0
289 2 6 1.05 12.988539475924565 2.364424152244219 2.366305101446536 0 0 0
297 2 6 1.05 13.001377313321198 0.30171767029549984 0.2612181690431604 0 0 0
299 1 7 1.575 14.044067334454233 5.557678261511661 1.3154251906987817 0 0 0
308 0 8 -1.05 15.214656862755763 4.483033630548598 0.22990671990377146 0 0 0
317 0 8 -1.05 12.977670598249038 6.695344669244742 0.16334472091007035 0 0 0
310 0 8 -1.05 17.199955650551665 6.634806932811739 -4.1124471919024295 0 0 0
335 0 8 -1.05 17.230703556812404 4.421827147082753 -1.7834871862582617 0 0 0
491 0 8 -1.05 23.500982676127908 6.54028488155181 -1.8697391082291672 0 0 0
496 0 8 -1.05 17.251547538013796 2.3720428075178246 -3.8663053461817043 0 0 0
500 0 8 -1.05 23.654681254758795 2.4570122654447832 -1.8684199598722153 0 0 0
503 0 8 -1.05 23.556556999020447 4.522269324777772 -3.8668842270776076 0 0 0
504 0 8 -1.05 19.37055476715639 4.474311253894099 -4.119978135655885 0 0 0
505 0 8 -1.05 17.323858908912896 0.35023081750582097 -1.8650612267735551 0 0 0
509 0 8 -1.05 19.423921926091136 6.703014221266841 -1.8637601581021586 0 0 0
510 0 8 -1.05 19.318695318061458 0.2844077657736817 -3.8710203815536985 0 0 0
512 0 8 -1.05 21.540310235523965 4.58015570521627 -1.8710356945920648 0 0 0
517 0 8 -1.05 19.269678519164835 2.294580308931661 -1.87200059036015 0 0 0
521 0 8 -1.05 21.482394686883662 6.597854820904857 -3.8638311140279247 0 0 0
522 0 8 -1.05 21.434851198006857 2.406382730094088 -4.119385537486529 0 0 0
525 2 6 1.05 21.46904620871379 4.507932884970128 -3.9985534128583105 0 0 0
529 2 6 1.05 17.21896262971255 0.27482059835937206 -3.9916975179381122 0 0 0
531 2 7 1.575 19.34765724744651 0.26175939503053763 -1.8687169288141157 0 0 0
532 2 7 1.575 21.463330780745263 6.618552234315844 -1.8610774578743543 0 0 0
535 2 7 1.575 17.213709105756983 2.380480617065482 -1.8710003396492523 0 0 0
540 1 7 1.575 24.638386722814335 7.678790522842097 -0.7918920045068757 0 0 0
541 1 7 1.575 22.51957443358861 1.3191105953926496 -2.9539140524372165 0 0 0
542 1 7 1.575 20.399069196985153 7.678628075506451 -5.021326628315237 0 0 0
543 1 7 1.575 18.292421953755703 5.556737808577094 -2.9440354145244676 0 0 0
544 1 7 1.575 24.639241790471996 3.4384068874417544 -5.02235024202837 0 0 0
546 1 7 1.575 20.396338206501888 3.444882704449759 -0.7985381896168208 0 0 0
548 2 6 1.05 19.336229356539686 2.3726484901982032 -3.997187195970291 0 0 0
549 2 6 1.05 23.572472720015394 6.611618564498842 -3.997226743256847 0 0 0
550 2 7 1.575 23.579332538358756 4.499829999855467 -1.865579611270634 0 0 0
1607 0 8 -1.05 21.38460561560752 0.1827405286217088 -1.8640393276854774 0 1 0
1621 0 8 -1.05 23.604843972282602 0.23138838960238536 -4.118319685448447 0 1 0
331 0 8 -1.05 17.217267068730422 2.474797651853915 0.16514192066494446 0 0 0
1375 0 8 -1.05 17.161163231033047 0.1796524701795972 2.4600190009584777 0 1 0
436 0 8 -1.05 19.440450671748007 2.380173698309556 2.3981175130255608 0 0 0
438 0 8 -1.05 19.22379316453765 4.528799932276613 0.27211345258278813 0 0 0