LAMMPS data file via write_data, version 21 Nov 2023, timestep = 11214593, units = real

2232 atoms
10 atom types
90 bonds
6 bond types
162 angles
6 angle types
0 dihedrals
2 dihedral types
18 impropers
2 improper types

0 25.44 xlo xhi
0 25.44 ylo yhi
-40.390587 40.907413000000005 zlo zhi

Masses

1 12.011
2 1.008
3 15.9994
4 15.9994
5 1.008
6 55.845
7 55.845
8 15.9994
9 15.9994
10 1.008

Pair Coeffs # lj/cut/coul/long

1 0.0988 3.31521
2 0.0161 2.4473
3 0.1463 3.04812
4 0.093 3.24287
5 0.0047 0.537925
6 9.0298e-07 4.9062
7 9.0298e-07 4.9062
8 0.1554 3.16554
9 0.1554 3.16554
10 0 0

Bond Coeffs # harmonic

1 361.8 1.105
2 652.57 1.218
3 383.13 1.351
4 563.51 0.973
5 554.135 1
6 0 2.08

Angle Coeffs # harmonic

1 51.617 106.55
2 65.93 123.65
3 65.262 109.49
4 115.745 122.1
5 118.817 130.25
6 30 109.47

Dihedral Coeffs # fourier

1 1 2.3 2 180
2 2 2.3 2 180 1.9 1 0

Improper Coeffs # cvff

1 10.5 -1 2
2 10.5 -1 2

Atoms # full

12 0 1 0.731 1.3236920005096786 5.6595368991236406 -19.204186547737113 0 0 0
11 0 2 -0.123 1.4132248089709893 5.552389491226748 -20.295445316206496 0 0 0
14 0 3 -0.804 2.098173557795769 6.419930722669907 -18.628037091059717 0 0 0
7 0 3 -0.804 0.45757929091273214 5.014414807960053 -18.62161582919437 0 0 0
260 0 1 0.731 9.824470858080115 5.6717917142141125 -19.204159840917267 0 0 0
259 0 2 -0.123 9.914750933937741 5.563019902813672 -20.295181424816256 0 0 0
262 0 3 -0.804 10.604183822457967 6.428505015198665 -18.62879846110457 0 0 0
255 0 3 -0.804 8.952798052306454 5.0330325733987475 -18.62253527514144 0 0 0
16 0 9 -0.975 4.414020300559316 6.7069540344454674 -16.805555282476416 0 0 0
18 0 8 -1.05 6.655251999999998 4.461582 -16.738421999999996 0 0 0
3 2 7 1.575 4.498416999999998 0.258417 -16.701586999999996 0 0 0
8 2 7 1.575 0.258417 4.498416999999998 -16.701586999999996 0 0 0
6 2 7 1.575 6.618416999999998 2.3784170000000002 -16.701586999999996 0 0 0
15 2 7 1.575 2.3784170000000002 6.618416999999998 -16.701586999999996 0 0 0
5 0 8 -1.05 6.581580999999999 0.295252 -16.664751999999996 0 0 0
10 0 9 -0.975 0.38369901754936164 6.510903978697799 -16.457157290548903 0 0 0
4 0 8 -1.05 4.535251999999998 2.3415820000000003 -16.664751999999996 0 0 0
13 0 8 -1.05 2.3415820000000003 4.535251999999998 -16.664751999999996 0 0 0
17 0 10 0.425 4.615987725273236 6.401426821870667 -17.781224290192547 0 0 0
1490 0 8 -1.05 2.415252 0.2215820000000015 -16.738421999999996 0 1 0
497 0 8 -1.05 0.2215820000000015 2.415252 -16.738421999999996 1 0 0
1 0 8 -1.05 8.701582 2.415252 -16.738421999999996 0 0 0
256 2 7 1.575 8.738417 4.498416999999998 -16.701586999999996 0 0 0
263 2 7 1.575 10.858417000000001 6.618416999999998 -16.701586999999996 0 0 0
258 0 9 -0.975 8.867582776854581 6.518108467385782 -16.458105472605062 0 0 0
261 0 8 -1.05 10.821582000000001 4.535251999999998 -16.664751999999996 0 0 0
257 0 10 0.425 8.293486370387907 7.118187555961686 -17.088407284985358 0 0 0
1738 0 8 -1.05 10.895252000000001 0.2215820000000015 -16.738421999999996 0 1 0
2 0 8 -1.05 2.415252 8.701582 -16.738421999999996 0 0 0
747 2 7 1.575 4.498416999999998 8.738417 -16.701586999999996 0 0 0
750 2 7 1.575 6.618416999999998 10.858417000000001 -16.701586999999996 0 0 0
749 0 8 -1.05 6.581580999999999 8.775252 -16.664751999999996 0 0 0
748 0 8 -1.05 4.535251999999998 10.821582000000001 -16.664751999999996 0 0 0
1241 0 8 -1.05 0.2215820000000015 10.895252000000001 -16.738421999999996 1 0 0
745 0 8 -1.05 8.701582 10.895252000000001 -16.738421999999996 0 0 0
250 0 8 -1.05 10.895252000000001 8.701582 -16.738421999999996 0 0 0
1043 0 8 -1.05 8.775252 8.775252 -10.378423000000005 0 0 0
22 1 7 1.575 1.3184170000000002 1.3184170000000002 -15.641586999999998 0 0 0
45 2 7 1.575 5.5584169999999995 5.5584169999999995 -15.641586999999998 0 0 0
39 2 7 1.575 2.3784170000000002 4.498416999999998 -14.581587000000003 0 0 0
35 2 7 1.575 0.258417 6.618416999999998 -14.581587000000003 0 0 0
27 2 7 1.575 4.498416999999998 2.3784170000000002 -14.581587000000003 0 0 0
31 2 7 1.575 6.618416999999998 0.258417 -14.581587000000003 0 0 0
36 0 8 -1.05 0.295252 4.535251999999998 -14.618421999999995 0 0 0
48 0 8 -1.05 6.655251999999998 6.655251999999998 -14.544752000000003 0 0 0
42 0 8 -1.05 4.461582 4.461582 -14.544752000000003 0 0 0
30 0 8 -1.05 6.581580999999999 2.3415820000000003 -14.618421999999995 0 0 0
38 0 8 -1.05 2.3415820000000003 6.581580999999999 -14.618421999999995 0 0 0
28 0 8 -1.05 4.535251999999998 0.295252 -14.618421999999995 0 0 0
25 0 8 -1.05 2.415252 2.415252 -14.544752000000003 0 0 0
29 1 7 1.575 5.5584169999999995 1.3184170000000002 -11.401586999999996 0 0 0
41 1 7 1.575 3.4384170000000003 7.678417 -13.521587000000004 0 0 0
37 1 7 1.575 1.3184170000000002 5.5584169999999995 -11.401586999999996 0 0 0
33 1 7 1.575 7.678417 3.4384170000000003 -13.521587000000004 0 0 0
24 2 6 1.05 2.3784170000000002 2.3784170000000002 -12.461586999999994 0 0 0
47 2 6 1.05 6.618416999999998 6.618416999999998 -12.461586999999994 0 0 0
20 2 7 1.575 0.258417 0.258417 -12.461586999999994 0 0 0
43 2 7 1.575 4.498416999999998 4.498416999999998 -12.461586999999994 0 0 0
26 0 8 -1.05 4.461582 2.415252 -12.498421999999998 0 0 0
44 0 8 -1.05 4.535251999999998 6.581580999999999 -12.424751999999998 0 0 0
23 0 8 -1.05 2.3415820000000003 0.295252 -12.424751999999998 0 0 0
40 0 8 -1.05 2.415252 4.461582 -12.498421999999998 0 0 0
46 0 8 -1.05 6.581580999999999 4.535251999999998 -12.424751999999998 0 0 0
21 0 8 -1.05 0.295252 2.3415820000000003 -12.424751999999998 0 0 0
1520 0 8 -1.05 6.655251999999998 0.2215820000000015 -12.498421999999998 0 1 0
530 0 8 -1.05 0.2215820000000015 6.655251999999998 -12.498421999999998 1 0 0
2003 0 8 -1.05 0.2215820000000015 0.2215820000000015 -14.544752000000003 1 1 0
34 0 8 -1.05 8.701582 6.655251999999998 -12.498421999999998 0 0 0
1507 0 8 -1.05 8.701582 0.2215820000000015 -14.544752000000003 0 1 0
270 1 7 1.575 9.798417 1.3184170000000002 -15.641586999999998 0 0 0
287 2 7 1.575 10.858417000000001 4.498416999999998 -14.581587000000003 0 0 0
283 2 7 1.575 8.738417 6.618416999999998 -14.581587000000003 0 0 0
284 0 8 -1.05 8.775252 4.535251999999998 -14.618421999999995 0 0 0
286 0 8 -1.05 10.821582000000001 6.581580999999999 -14.618421999999995 0 0 0
273 0 8 -1.05 10.895252000000001 2.415252 -14.544752000000003 0 0 0
289 1 7 1.575 11.918417000000002 7.678417 -13.521587000000004 0 0 0
285 1 7 1.575 9.798417 5.5584169999999995 -11.401586999999996 0 0 0
272 2 6 1.05 10.858417000000001 2.3784170000000002 -12.461586999999994 0 0 0
268 2 6 1.05 8.738417 0.258417 -12.461586999999994 0 0 0
271 0 8 -1.05 10.821582000000001 0.295252 -12.424751999999998 0 0 0
288 0 8 -1.05 10.895252000000001 4.461582 -12.498421999999998 0 0 0
269 0 8 -1.05 8.775252 2.3415820000000003 -12.424751999999998 0 0 0
32 0 8 -1.05 6.655251999999998 8.701582 -12.498421999999998 0 0 0
766 1 7 1.575 1.3184170000000002 9.798417 -15.641586999999998 0 0 0
771 2 7 1.575 4.498416999999998 10.858417000000001 -14.581587000000003 0 0 0
775 2 6 1.05 6.618416999999998 8.738417 -14.581587000000003 0 0 0
774 0 8 -1.05 6.581580999999999 10.821582000000001 -14.618421999999995 0 0 0
772 0 8 -1.05 4.535251999999998 8.775252 -14.618421999999995 0 0 0
769 0 8 -1.05 2.415252 10.895252000000001 -14.544752000000003 0 0 0
773 1 7 1.575 5.5584169999999995 9.798417 -11.401586999999996 0 0 0
777 1 7 1.575 7.678417 11.918417000000002 -13.521587000000004 0 0 0
768 2 7 1.575 2.3784170000000002 10.858417000000001 -12.461586999999994 0 0 0
764 2 6 1.05 0.258417 8.738417 -12.461586999999994 0 0 0
770 0 8 -1.05 4.461582 10.895252000000001 -12.498421999999998 0 0 0
767 0 8 -1.05 2.3415820000000003 8.775252 -12.424751999999998 0 0 0
765 0 8 -1.05 0.295252 10.821582000000001 -12.424751999999998 0 0 0
515 0 8 -1.05 0.2215820000000015 8.701582 -14.544752000000003 1 0 0
19 0 8 -1.05 8.701582 8.701582 -14.544752000000003 0 0 0
1014 1 7 1.575 9.798417 9.798417 -15.641586999999998 0 0 0
1017 0 8 -1.05 10.895252000000001 10.895252000000001 -14.544752000000003 0 0 0
1016 2 6 1.05 10.858417000000001 10.858417000000001 -12.461586999999994 0 0 0
1012 2 7 1.575 8.738417 8.738417 -12.461586999999994 0 0 0
1015 0 8 -1.05 10.821582000000001 8.775252 -12.424751999999998 0 0 0
1013 0 8 -1.05 8.775252 10.821582000000001 -12.424751999999998 0 0 0
76 1 7 1.575 7.678417 7.678417 -9.281587000000002 0 0 0
56 1 7 1.575 3.4384170000000003 3.4384170000000003 -9.281587000000002 0 0 0
74 2 7 1.575 6.618416999999998 4.498416999999998 -10.341587000000004 0 0 0
50 2 6 1.05 0.258417 2.3784170000000002 -10.341587000000004 0 0 0
70 2 6 1.05 4.498416999999998 6.618416999999998 -10.341587000000004 0 0 0
54 2 6 1.05 2.3784170000000002 0.258417 -10.341587000000004 0 0 0
53 0 8 -1.05 2.3415820000000003 2.3415820000000003 -10.378423000000005 0 0 0
71 0 8 -1.05 4.535251999999998 4.535251999999998 -10.378423000000005 0 0 0
68 0 8 -1.05 2.415252 6.655251999999998 -10.304752000000004 0 0 0
51 0 8 -1.05 0.295252 0.295252 -10.378423000000005 0 0 0
69 0 8 -1.05 4.461582 6.655251999999998 -8.258422000000003 0 0 0
62 0 8 -1.05 6.655251999999998 2.415252 -10.304752000000004 0 0 0
75 0 8 -1.05 6.655251999999998 4.461582 -8.258422000000003 0 0 0
73 0 8 -1.05 6.581580999999999 6.581580999999999 -10.378423000000005 0 0 0
58 2 6 1.05 4.498416999999998 0.258417 -8.221587 0 0 0
64 2 7 1.575 0.258417 4.498416999999998 -8.221587 0 0 0
61 2 6 1.05 6.618416999999998 2.3784170000000002 -8.221587 0 0 0
67 2 7 1.575 2.3784170000000002 6.618416999999998 -8.221587 0 0 0
60 0 8 -1.05 6.581580999999999 0.295252 -8.184751999999996 0 0 0
65 0 8 -1.05 0.295252 6.581580999999999 -8.184751999999996 0 0 0
59 0 8 -1.05 4.535251999999998 2.3415820000000003 -8.184751999999996 0 0 0
66 0 8 -1.05 2.3415820000000003 4.535251999999998 -8.184751999999996 0 0 0
1543 0 8 -1.05 2.415252 0.2215820000000015 -8.258422000000003 0 1 0
1545 0 8 -1.05 4.461582 0.2215820000000015 -10.304752000000004 0 1 0
559 0 8 -1.05 0.2215820000000015 4.461582 -10.304752000000004 1 0 0
545 0 8 -1.05 0.2215820000000015 2.415252 -8.258422000000003 1 0 0
63 0 8 -1.05 8.701582 4.461582 -10.304752000000004 0 0 0
49 0 8 -1.05 8.701582 2.415252 -8.258422000000003 0 0 0
304 1 7 1.575 11.918417000000002 3.4384170000000003 -9.281587000000002 0 0 0
298 2 7 1.575 8.738417 2.3784170000000002 -10.341587000000004 0 0 0
302 2 7 1.575 10.858417000000001 0.258417 -10.341587000000004 0 0 0
301 0 8 -1.05 10.821582000000001 2.3415820000000003 -10.378423000000005 0 0 0
316 0 8 -1.05 10.895252000000001 6.655251999999998 -10.304752000000004 0 0 0
299 0 8 -1.05 8.775252 0.295252 -10.378423000000005 0 0 0
312 2 6 1.05 8.738417 4.498416999999998 -8.221587 0 0 0
315 2 6 1.05 10.858417000000001 6.618416999999998 -8.221587 0 0 0
313 0 8 -1.05 8.775252 6.581580999999999 -8.184751999999996 0 0 0
314 0 8 -1.05 10.821582000000001 4.535251999999998 -8.184751999999996 0 0 0
1791 0 8 -1.05 10.895252000000001 0.2215820000000015 -8.258422000000003 0 1 0
55 0 8 -1.05 2.415252 8.701582 -8.258422000000003 0 0 0
57 0 8 -1.05 4.461582 8.701582 -10.304752000000004 0 0 0
800 1 7 1.575 3.4384170000000003 11.918417000000002 -9.281587000000002 0 0 0
794 2 7 1.575 0.258417 10.858417000000001 -10.341587000000004 0 0 0
798 2 6 1.05 2.3784170000000002 8.738417 -10.341587000000004 0 0 0
797 0 8 -1.05 2.3415820000000003 10.821582000000001 -10.378423000000005 0 0 0
795 0 8 -1.05 0.295252 8.775252 -10.378423000000005 0 0 0
806 0 8 -1.05 6.655251999999998 10.895252000000001 -10.304752000000004 0 0 0
802 2 7 1.575 4.498416999999998 8.738417 -8.221587 0 0 0
805 2 7 1.575 6.618416999999998 10.858417000000001 -8.221587 0 0 0
804 0 8 -1.05 6.581580999999999 8.775252 -8.184751999999996 0 0 0
803 0 8 -1.05 4.535251999999998 10.821582000000001 -8.184751999999996 0 0 0
1289 0 8 -1.05 0.2215820000000015 10.895252000000001 -8.258422000000003 1 0 0
793 0 8 -1.05 8.701582 10.895252000000001 -8.258422000000003 0 0 0
303 0 8 -1.05 10.895252000000001 8.701582 -8.258422000000003 0 0 0
1048 1 7 1.575 11.918417000000002 11.918417000000002 -9.281587000000002 0 0 0
1042 2 7 1.575 8.738417 10.858417000000001 -10.341587000000004 0 0 0
1046 2 6 1.05 10.858417000000001 8.738417 -10.341587000000004 0 0 0
1045 0 8 -1.05 10.821582000000001 10.821582000000001 -10.378423000000005 0 0 0
52 1 7 1.575 1.3184170000000002 1.3184170000000002 -7.161586999999997 0 0 0
72 1 7 1.575 5.5584169999999995 5.5584169999999995 -7.161586999999997 0 0 0
98 1 7 1.575 3.4384170000000003 7.678417 -5.041587000000003 0 0 0
90 1 7 1.575 7.678417 3.4384170000000003 -5.041587000000003 0 0 0
81 2 7 1.575 2.3784170000000002 2.3784170000000002 -3.981587000000008 0 0 0
103 2 6 1.05 6.618416999999998 6.618416999999998 -3.981587000000008 0 0 0
96 2 6 1.05 2.3784170000000002 4.498416999999998 -6.101587000000002 0 0 0
92 2 6 1.05 0.258417 6.618416999999998 -6.101587000000002 0 0 0
84 2 7 1.575 4.498416999999998 2.3784170000000002 -6.101587000000002 0 0 0
88 2 7 1.575 6.618416999999998 0.258417 -6.101587000000002 0 0 0
78 2 6 1.05 0.258417 0.258417 -3.981587000000008 0 0 0
100 2 6 1.05 4.498416999999998 4.498416999999998 -3.981587000000008 0 0 0
83 0 8 -1.05 4.461582 2.415252 -4.0184219999999975 0 0 0
101 0 8 -1.05 4.535251999999998 6.581580999999999 -3.944752000000001 0 0 0
93 0 8 -1.05 0.295252 4.535251999999998 -6.138421999999995 0 0 0
104 0 8 -1.05 6.655251999999998 6.655251999999998 -6.064752000000002 0 0 0
99 0 8 -1.05 4.461582 4.461582 -6.064752000000002 0 0 0
80 0 8 -1.05 2.3415820000000003 0.295252 -3.944752000000001 0 0 0
87 0 8 -1.05 6.581580999999999 2.3415820000000003 -6.138421999999995 0 0 0
97 0 8 -1.05 2.415252 4.461582 -4.0184219999999975 0 0 0
102 0 8 -1.05 6.581580999999999 4.535251999999998 -3.944752000000001 0 0 0
95 0 8 -1.05 2.3415820000000003 6.581580999999999 -6.138421999999995 0 0 0
85 0 8 -1.05 4.535251999999998 0.295252 -6.138421999999995 0 0 0
79 0 8 -1.05 0.295252 2.3415820000000003 -3.944752000000001 0 0 0
82 0 8 -1.05 2.415252 2.415252 -6.064752000000002 0 0 0
1577 0 8 -1.05 6.655251999999998 0.2215820000000015 -4.0184219999999975 0 1 0
587 0 8 -1.05 0.2215820000000015 6.655251999999998 -4.0184219999999975 1 0 0
2061 0 8 -1.05 0.2215820000000015 0.2215820000000015 -6.064752000000002 1 1 0
91 0 8 -1.05 8.701582 6.655251999999998 -4.0184219999999975 0 0 0
1565 0 8 -1.05 8.701582 0.2215820000000015 -6.064752000000002 0 1 0
300 1 7 1.575 9.798417 1.3184170000000002 -7.161586999999997 0 0 0
346 1 7 1.575 11.918417000000002 7.678417 -5.041587000000003 0 0 0
329 2 6 1.05 10.858417000000001 2.3784170000000002 -3.981587000000008 0 0 0
344 2 7 1.575 10.858417000000001 4.498416999999998 -6.101587000000002 0 0 0
340 2 7 1.575 8.738417 6.618416999999998 -6.101587000000002 0 0 0
326 2 7 1.575 8.738417 0.258417 -3.981587000000008 0 0 0
341 0 8 -1.05 8.775252 4.535251999999998 -6.138421999999995 0 0 0
328 0 8 -1.05 10.821582000000001 0.295252 -3.944752000000001 0 0 0
345 0 8 -1.05 10.895252000000001 4.461582 -4.0184219999999975 0 0 0
343 0 8 -1.05 10.821582000000001 6.581580999999999 -6.138421999999995 0 0 0
327 0 8 -1.05 8.775252 2.3415820000000003 -3.944752000000001 0 0 0
330 0 8 -1.05 10.895252000000001 2.415252 -6.064752000000002 0 0 0
89 0 8 -1.05 6.655251999999998 8.701582 -4.0184219999999975 0 0 0
796 1 7 1.575 1.3184170000000002 9.798417 -7.161586999999997 0 0 0
834 1 7 1.575 7.678417 11.918417000000002 -5.041587000000003 0 0 0
825 2 6 1.05 2.3784170000000002 10.858417000000001 -3.981587000000008 0 0 0
828 2 6 1.05 4.498416999999998 10.858417000000001 -6.101587000000002 0 0 0
832 2 6 1.05 6.618416999999998 8.738417 -6.101587000000002 0 0 0
822 2 7 1.575 0.258417 8.738417 -3.981587000000008 0 0 0
827 0 8 -1.05 4.461582 10.895252000000001 -4.0184219999999975 0 0 0
824 0 8 -1.05 2.3415820000000003 8.775252 -3.944752000000001 0 0 0
831 0 8 -1.05 6.581580999999999 10.821582000000001 -6.138421999999995 0 0 0
829 0 8 -1.05 4.535251999999998 8.775252 -6.138421999999995 0 0 0
823 0 8 -1.05 0.295252 10.821582000000001 -3.944752000000001 0 0 0
826 0 8 -1.05 2.415252 10.895252000000001 -6.064752000000002 0 0 0
573 0 8 -1.05 0.2215820000000015 8.701582 -6.064752000000002 1 0 0
77 0 8 -1.05 8.701582 8.701582 -6.064752000000002 0 0 0
1044 1 7 1.575 9.798417 9.798417 -7.161586999999997 0 0 0
1073 2 7 1.575 10.858417000000001 10.858417000000001 -3.981587000000008 0 0 0
1070 2 7 1.575 8.738417 8.738417 -3.981587000000008 0 0 0
1072 0 8 -1.05 10.821582000000001 8.775252 -3.944752000000001 0 0 0
1071 0 8 -1.05 8.775252 10.821582000000001 -3.944752000000001 0 0 0
1074 0 8 -1.05 10.895252000000001 10.895252000000001 -6.064752000000002 0 0 0
144 1 7 1.575 7.678417 7.678417 -0.8015869999999978 0 0 0
86 1 7 1.575 5.5584169999999995 1.3184170000000002 -2.9215870000000024 0 0 0
94 1 7 1.575 1.3184170000000002 5.5584169999999995 -2.9215870000000024 0 0 0
114 1 7 1.575 3.4384170000000003 3.4384170000000003 -0.8015869999999978 0 0 0
141 2 6 1.05 6.618416999999998 4.498416999999998 -1.861587 0 0 0
107 2 7 1.575 0.258417 2.3784170000000002 -1.861587 0 0 0
137 2 7 1.575 4.498416999999998 6.618416999999998 -1.861587 0 0 0
111 2 6 1.05 2.3784170000000002 0.258417 -1.861587 0 0 0
110 0 8 -1.05 2.3415820000000003 2.3415820000000003 -1.8984230000000082 0 0 0
138 0 8 -1.05 4.535251999999998 4.535251999999998 -1.8984230000000082 0 0 0
134 0 8 -1.05 2.415252 6.655251999999998 -1.8247519999999966 0 0 0
108 0 8 -1.05 0.295252 0.295252 -1.8984230000000082 0 0 0
124 0 8 -1.05 6.655251999999998 2.415252 -1.8247519999999966 0 0 0
140 0 8 -1.05 6.581580999999999 6.581580999999999 -1.8984230000000082 0 0 0
136 0 8 -1.05 4.461582 6.655251999999998 0.22157800000000805 0 0 0
142 0 8 -1.05 6.655251999999998 4.461582 0.22157800000000805 0 0 0
1603 0 8 -1.05 4.461582 0.2215820000000015 -1.8247519999999966 0 1 0
1600 0 8 -1.05 2.415252 0.2215820000000015 0.22157800000000805 0 1 0
621 0 8 -1.05 0.2215820000000015 4.461582 -1.8247519999999966 1 0 0
602 0 8 -1.05 0.2215820000000015 2.415252 0.22157800000000805 1 0 0
125 0 8 -1.05 8.701582 4.461582 -1.8247519999999966 0 0 0
106 0 8 -1.05 8.701582 2.415252 0.22157800000000805 0 0 0
342 1 7 1.575 9.798417 5.5584169999999995 -2.9215870000000024 0 0 0
362 1 7 1.575 11.918417000000002 3.4384170000000003 -0.8015869999999978 0 0 0
355 2 7 1.575 8.738417 2.3784170000000002 -1.861587 0 0 0
359 2 6 1.05 10.858417000000001 0.258417 -1.861587 0 0 0
358 0 8 -1.05 10.821582000000001 2.3415820000000003 -1.8984230000000082 0 0 0
382 0 8 -1.05 10.895252000000001 6.655251999999998 -1.8247519999999966 0 0 0
356 0 8 -1.05 8.775252 0.295252 -1.8984230000000082 0 0 0
1848 0 8 -1.05 10.895252000000001 0.2215820000000015 0.22157800000000805 0 1 0
115 0 8 -1.05 4.461582 8.701582 -1.8247519999999966 0 0 0
112 0 8 -1.05 2.415252 8.701582 0.22157800000000805 0 0 0
830 1 7 1.575 5.5584169999999995 9.798417 -2.9215870000000024 0 0 0
858 1 7 1.575 3.4384170000000003 11.918417000000002 -0.8015869999999978 0 0 0
851 2 6 1.05 0.258417 10.858417000000001 -1.861587 0 0 0
855 2 7 1.575 2.3784170000000002 8.738417 -1.861587 0 0 0
854 0 8 -1.05 2.3415820000000003 10.821582000000001 -1.8984230000000082 0 0 0
852 0 8 -1.05 0.295252 8.775252 -1.8984230000000082 0 0 0
868 0 8 -1.05 6.655251999999998 10.895252000000001 -1.8247519999999966 0 0 0
1346 0 8 -1.05 0.2215820000000015 10.895252000000001 0.22157800000000805 1 0 0
850 0 8 -1.05 8.701582 10.895252000000001 0.22157800000000805 0 0 0
360 0 8 -1.05 10.895252000000001 8.701582 0.22157800000000805 0 0 0
1106 1 7 1.575 11.918417000000002 11.918417000000002 -0.8015869999999978 0 0 0
1099 2 6 1.05 8.738417 10.858417000000001 -1.861587 0 0 0
1103 2 6 1.05 10.858417000000001 8.738417 -1.861587 0 0 0
1102 0 8 -1.05 10.821582000000001 10.821582000000001 -1.8984230000000082 0 0 0
1100 0 8 -1.05 8.775252 8.775252 -1.8984230000000082 0 0 0
113 0 8 -1.05 2.415252 2.415252 2.415247999999991 0 0 0
130 0 8 -1.05 2.3415820000000003 4.535251999999998 0.29524799999999374 0 0 0
118 0 8 -1.05 4.535251999999998 0.295252 2.3415779999999913 0 0 0
131 0 8 -1.05 2.3415820000000003 6.581580999999999 2.3415779999999913 0 0 0
119 0 8 -1.05 4.535251999999998 2.3415820000000003 0.29524799999999374 0 0 0
121 0 8 -1.05 6.581580999999999 2.3415820000000003 2.3415779999999913 0 0 0
135 0 8 -1.05 4.461582 4.461582 2.415247999999991 0 0 0
129 0 8 -1.05 0.295252 6.581580999999999 0.29524799999999374 0 0 0
143 0 8 -1.05 6.655251999999998 6.655251999999998 2.415247999999991 0 0 0
128 0 8 -1.05 0.295252 4.535251999999998 2.3415779999999913 0 0 0
120 0 8 -1.05 6.581580999999999 0.295252 0.29524799999999374 0 0 0
133 2 6 1.05 2.3784170000000002 6.618416999999998 0.25841300000000444 0 0 0
123 2 7 1.575 6.618416999999998 2.3784170000000002 0.25841300000000444 0 0 0
122 2 7 1.575 6.618416999999998 0.258417 2.3784129999999877 0 0 0
117 2 6 1.05 4.498416999999998 2.3784170000000002 2.3784129999999877 0 0 0
126 2 6 1.05 0.258417 4.498416999999998 0.25841300000000444 0 0 0
127 2 7 1.575 0.258417 6.618416999999998 2.3784129999999877 0 0 0
132 2 7 1.575 2.3784170000000002 4.498416999999998 2.3784129999999877 0 0 0
109 1 7 1.575 1.3184170000000002 1.3184170000000002 1.3184129999999925 0 0 0
164 1 7 1.575 3.4384170000000003 7.678417 3.43841299999999 0 0 0
158 1 7 1.575 7.678417 3.4384170000000003 3.43841299999999 0 0 0
139 1 7 1.575 5.5584169999999995 5.5584169999999995 1.3184129999999925 0 0 0
116 2 6 1.05 4.498416999999998 0.258417 0.25841300000000444 0 0 0
2089 0 8 -1.05 0.2215820000000015 0.2215820000000015 2.415247999999991 1 1 0
1593 0 8 -1.05 8.701582 0.2215820000000015 2.415247999999991 0 1 0
361 0 8 -1.05 10.895252000000001 2.415252 2.415247999999991 0 0 0
378 0 8 -1.05 10.821582000000001 4.535251999999998 0.29524799999999374 0 0 0
379 0 8 -1.05 10.821582000000001 6.581580999999999 2.3415779999999913 0 0 0
377 0 8 -1.05 8.775252 6.581580999999999 0.29524799999999374 0 0 0
376 0 8 -1.05 8.775252 4.535251999999998 2.3415779999999913 0 0 0
381 2 7 1.575 10.858417000000001 6.618416999999998 0.25841300000000444 0 0 0
374 2 6 1.05 8.738417 4.498416999999998 0.25841300000000444 0 0 0
375 2 7 1.575 8.738417 6.618416999999998 2.3784129999999877 0 0 0
380 2 6 1.05 10.858417000000001 4.498416999999998 2.3784129999999877 0 0 0
357 1 7 1.575 9.798417 1.3184170000000002 1.3184129999999925 0 0 0
412 1 7 1.575 11.918417000000002 7.678417 3.43841299999999 0 0 0
857 0 8 -1.05 2.415252 10.895252000000001 2.415247999999991 0 0 0
862 0 8 -1.05 4.535251999999998 8.775252 2.3415779999999913 0 0 0
863 0 8 -1.05 4.535251999999998 10.821582000000001 0.29524799999999374 0 0 0
865 0 8 -1.05 6.581580999999999 10.821582000000001 2.3415779999999913 0 0 0
864 0 8 -1.05 6.581580999999999 8.775252 0.29524799999999374 0 0 0
867 2 6 1.05 6.618416999999998 10.858417000000001 0.25841300000000444 0 0 0
866 2 6 1.05 6.618416999999998 8.738417 2.3784129999999877 0 0 0
861 2 7 1.575 4.498416999999998 10.858417000000001 2.3784129999999877 0 0 0
853 1 7 1.575 1.3184170000000002 9.798417 1.3184129999999925 0 0 0
902 1 7 1.575 7.678417 11.918417000000002 3.43841299999999 0 0 0
860 2 7 1.575 4.498416999999998 8.738417 0.25841300000000444 0 0 0
601 0 8 -1.05 0.2215820000000015 8.701582 2.415247999999991 1 0 0
105 0 8 -1.05 8.701582 8.701582 2.415247999999991 0 0 0
1105 0 8 -1.05 10.895252000000001 10.895252000000001 2.415247999999991 0 0 0
1101 1 7 1.575 9.798417 9.798417 1.3184129999999925 0 0 0
170 0 8 -1.05 6.581580999999999 6.581580999999999 6.581576999999989 0 0 0
148 0 8 -1.05 0.295252 2.3415820000000003 4.535248000000003 0 0 0
157 0 8 -1.05 6.655251999999998 2.415252 6.655248000000007 0 0 0
169 0 8 -1.05 6.581580999999999 4.535251999999998 4.535248000000003 0 0 0
162 0 8 -1.05 2.415252 4.461582 4.461577999999996 0 0 0
147 0 8 -1.05 0.295252 0.295252 6.581576999999989 0 0 0
163 0 8 -1.05 2.415252 6.655251999999998 6.655248000000007 0 0 0
149 0 8 -1.05 2.3415820000000003 0.295252 4.535248000000003 0 0 0
167 0 8 -1.05 4.535251999999998 4.535251999999998 6.581576999999989 0 0 0
150 0 8 -1.05 2.3415820000000003 2.3415820000000003 6.581576999999989 0 0 0
168 0 8 -1.05 4.535251999999998 6.581580999999999 4.535248000000003 0 0 0
154 0 8 -1.05 4.461582 2.415252 4.461577999999996 0 0 0
165 2 6 1.05 4.498416999999998 4.498416999999998 4.498412999999999 0 0 0
145 2 6 1.05 0.258417 0.258417 4.498412999999999 0 0 0
151 2 7 1.575 2.3784170000000002 0.258417 6.618413000000004 0 0 0
166 2 6 1.05 4.498416999999998 6.618416999999998 6.618413000000004 0 0 0
146 2 6 1.05 0.258417 2.3784170000000002 6.618413000000004 0 0 0
155 1 7 1.575 5.5584169999999995 1.3184170000000002 5.558413000000002 0 0 0
161 1 7 1.575 1.3184170000000002 5.5584169999999995 5.558413000000002 0 0 0
152 2 7 1.575 2.3784170000000002 2.3784170000000002 4.498412999999999 0 0 0
172 2 7 1.575 6.618416999999998 6.618416999999998 4.498412999999999 0 0 0
171 2 7 1.575 6.618416999999998 4.498416999999998 6.618413000000004 0 0 0
200 1 7 1.575 7.678417 7.678417 7.678413000000006 0 0 0
178 1 7 1.575 3.4384170000000003 3.4384170000000003 7.678413000000006 0 0 0
1641 0 8 -1.05 4.461582 0.2215820000000015 6.655248000000007 0 1 0
1644 0 8 -1.05 6.655251999999998 0.2215820000000015 4.461577999999996 0 1 0
656 0 8 -1.05 0.2215820000000015 6.655251999999998 4.461577999999996 1 0 0
655 0 8 -1.05 0.2215820000000015 4.461582 6.655248000000007 1 0 0
160 0 8 -1.05 8.701582 6.655251999999998 4.461577999999996 0 0 0
159 0 8 -1.05 8.701582 4.461582 6.655248000000007 0 0 0
396 0 8 -1.05 8.775252 2.3415820000000003 4.535248000000003 0 0 0
410 0 8 -1.05 10.895252000000001 4.461582 4.461577999999996 0 0 0
395 0 8 -1.05 8.775252 0.295252 6.581576999999989 0 0 0
411 0 8 -1.05 10.895252000000001 6.655251999999998 6.655248000000007 0 0 0
397 0 8 -1.05 10.821582000000001 0.295252 4.535248000000003 0 0 0
398 0 8 -1.05 10.821582000000001 2.3415820000000003 6.581576999999989 0 0 0
393 2 6 1.05 8.738417 0.258417 4.498412999999999 0 0 0
399 2 7 1.575 10.858417000000001 0.258417 6.618413000000004 0 0 0
394 2 6 1.05 8.738417 2.3784170000000002 6.618413000000004 0 0 0
409 1 7 1.575 9.798417 5.5584169999999995 5.558413000000002 0 0 0
400 2 7 1.575 10.858417000000001 2.3784170000000002 4.498412999999999 0 0 0
426 1 7 1.575 11.918417000000002 3.4384170000000003 7.678413000000006 0 0 0
153 0 8 -1.05 4.461582 8.701582 6.655248000000007 0 0 0
156 0 8 -1.05 6.655251999999998 8.701582 4.461577999999996 0 0 0
892 0 8 -1.05 0.295252 10.821582000000001 4.535248000000003 0 0 0
901 0 8 -1.05 6.655251999999998 10.895252000000001 6.655248000000007 0 0 0
891 0 8 -1.05 0.295252 8.775252 6.581576999999989 0 0 0
893 0 8 -1.05 2.3415820000000003 8.775252 4.535248000000003 0 0 0
894 0 8 -1.05 2.3415820000000003 10.821582000000001 6.581576999999989 0 0 0
898 0 8 -1.05 4.461582 10.895252000000001 4.461577999999996 0 0 0
889 2 6 1.05 0.258417 8.738417 4.498412999999999 0 0 0
895 2 7 1.575 2.3784170000000002 8.738417 6.618413000000004 0 0 0
890 2 7 1.575 0.258417 10.858417000000001 6.618413000000004 0 0 0
899 1 7 1.575 5.5584169999999995 9.798417 5.558413000000002 0 0 0
896 2 6 1.05 2.3784170000000002 10.858417000000001 4.498412999999999 0 0 0
922 1 7 1.575 3.4384170000000003 11.918417000000002 7.678413000000006 0 0 0
1140 0 8 -1.05 8.775252 10.821582000000001 4.535248000000003 0 0 0
1139 0 8 -1.05 8.775252 8.775252 6.581576999999989 0 0 0
1141 0 8 -1.05 10.821582000000001 8.775252 4.535248000000003 0 0 0
1142 0 8 -1.05 10.821582000000001 10.821582000000001 6.581576999999989 0 0 0
1137 2 6 1.05 8.738417 8.738417 4.498412999999999 0 0 0
1143 2 7 1.575 10.858417000000001 8.738417 6.618413000000004 0 0 0
1138 2 7 1.575 8.738417 10.858417000000001 6.618413000000004 0 0 0
1144 2 6 1.05 10.858417000000001 10.858417000000001 4.498412999999999 0 0 0
1170 1 7 1.575 11.918417000000002 11.918417000000002 7.678413000000006 0 0 0
177 0 8 -1.05 2.415252 2.415252 10.895247999999995 0 0 0
191 0 8 -1.05 2.3415820000000003 4.535251999999998 8.775248000000012 0 0 0
181 0 8 -1.05 4.535251999999998 0.295252 10.821577999999995 0 0 0
192 0 8 -1.05 2.3415820000000003 6.581580999999999 10.821577999999995 0 0 0
182 0 8 -1.05 4.535251999999998 2.3415820000000003 8.775248000000012 0 0 0
184 0 8 -1.05 6.581580999999999 2.3415820000000003 10.821577999999995 0 0 0
195 0 8 -1.05 4.461582 4.461582 10.895247999999995 0 0 0
190 0 8 -1.05 0.295252 6.581580999999999 8.775248000000012 0 0 0
199 0 8 -1.05 6.655251999999998 6.655251999999998 10.895247999999995 0 0 0
189 0 8 -1.05 0.295252 4.535251999999998 10.821577999999995 0 0 0
183 0 8 -1.05 6.581580999999999 0.295252 8.775248000000012 0 0 0
194 2 7 1.575 2.3784170000000002 6.618416999999998 8.738413000000008 0 0 0
186 2 7 1.575 6.618416999999998 2.3784170000000002 8.738413000000008 0 0 0
185 2 6 1.05 6.618416999999998 0.258417 10.858412999999992 0 0 0
180 2 7 1.575 4.498416999999998 2.3784170000000002 10.858412999999992 0 0 0
187 2 6 1.05 0.258417 4.498416999999998 8.738413000000008 0 0 0
188 2 6 1.05 0.258417 6.618416999999998 10.858412999999992 0 0 0
193 2 7 1.575 2.3784170000000002 4.498416999999998 10.858412999999992 0 0 0
179 2 6 1.05 4.498416999999998 0.258417 8.738413000000008 0 0 0
197 1 7 1.575 5.5584169999999995 5.5584169999999995 9.798412999999996 0 0 0
175 1 7 1.575 1.3184170000000002 1.3184170000000002 9.798412999999996 0 0 0
198 0 8 -1.05 6.655251999999998 4.461582 8.701578000000005 0 0 0
196 0 8 -1.05 4.461582 6.655251999999998 8.701578000000005 0 0 0
1664 0 8 -1.05 2.415252 0.2215820000000015 8.701578000000005 0 1 0
670 0 8 -1.05 0.2215820000000015 2.415252 8.701578000000005 1 0 0
2157 0 8 -1.05 0.2215820000000015 0.2215820000000015 10.895247999999995 1 1 0
174 0 8 -1.05 8.701582 2.415252 8.701578000000005 0 0 0
1661 0 8 -1.05 8.701582 0.2215820000000015 10.895247999999995 0 1 0
425 0 8 -1.05 10.895252000000001 2.415252 10.895247999999995 0 0 0
439 0 8 -1.05 10.821582000000001 4.535251999999998 8.775248000000012 0 0 0
440 0 8 -1.05 10.821582000000001 6.581580999999999 10.821577999999995 0 0 0
438 0 8 -1.05 8.775252 6.581580999999999 8.775248000000012 0 0 0
437 0 8 -1.05 8.775252 4.535251999999998 10.821577999999995 0 0 0
442 2 6 1.05 10.858417000000001 6.618416999999998 8.738413000000008 0 0 0