LAMMPS data file via write_data, version 29 Sep 2021, timestep = 3664126

1332 atoms
10 atom types
180 bonds
6 bond types
324 angles
6 angle types
0 dihedrals
2 dihedral types
36 impropers
2 improper types

0 25.44 xlo xhi
0 25.44 ylo yhi
35.929417 100.267417 zlo zhi

Masses

1 12.011
2 1.008
3 15.9994
4 15.9994
5 1.008
6 55.845
7 55.845
8 15.9994
9 15.9994
10 1.008

Pair Coeffs # lj/cut/coul/long

1 0.0988 3.31521
2 0.0161 2.4473
3 0.1463 3.04812
4 0.093 3.24287
5 0.0047 0.537925
6 9.0298e-07 4.9062
7 9.0298e-07 4.9062
8 0.1554 3.16554
9 0.1554 3.16554
10 0 0

Bond Coeffs # harmonic

1 361.8 1.105
2 652.57 1.218
3 383.13 1.351
4 563.51 0.973
5 554.135 1
6 0 2.08

Angle Coeffs # harmonic

1 51.617 106.55
2 65.93 123.65
3 65.262 109.49
4 115.745 122.1
5 118.817 130.25
6 30 109.47

Dihedral Coeffs # fourier

1 1 2.3 2 180
2 2 2.3 2 180 1.9 1 0

Improper Coeffs # cvff

1 10.5 -1 2
2 10.5 -1 2

Atoms # full

20 0 1 0.731 3.1261373798763255 7.855395281348877 57.113288992504984 0 0 0
19 0 2 -0.123 3.3044036188720067 7.684345594171728 56.043242835842115 0 0 0
1048 0 1 0.731 7.365117577253945 3.614575387202791 57.11386488307507 0 1 0
1047 0 2 -0.123 7.545263579787323 3.4419207138495667 56.04444313838874 0 1 0
168 0 1 0.731 11.586638891495511 7.834519766982353 57.113765947675134 0 0 0
167 0 2 -0.123 11.760063362014805 7.654088359673551 56.04448882155453 0 0 0
160 0 1 0.731 7.354743748494211 12.08566672373791 57.11455355146758 0 0 0
159 0 2 -0.123 7.532905862463407 11.907417377728091 56.04576868651921 0 0 0
15 0 9 -0.975 0.2147976052821078 6.5061949872213845 59.801799175209986 0 0 0
16 0 8 -1.05 2.1643419999999987 4.556274999999999 59.655252 0 0 0
17 2 7 1.575 2.2011779999999987 6.6394400000000005 59.618416999999994 0 0 0
14 2 7 1.575 0.08117799999999864 4.5194399999999995 59.618416999999994 0 0 0
21 0 8 -1.05 4.284343 6.676275 59.581582000000004 0 0 0
18 0 3 -0.804 2.273898970648015 7.192187946488895 57.69830309913639 0 0 0
916 2 7 1.575 1.1411779999999991 1.3394399999999997 60.678416999999996 0 1 0
891 0 9 -0.975 2.2983101519301004 0.1835949186891578 59.76284381638772 0 1 0
889 0 8 -1.05 0.04434299999999958 2.4362749999999984 59.581582000000004 0 1 0
300 0 10 0.425 12.351383819586454 11.328825248558719 59.15837915358395 0 0 0
895 0 3 -0.804 3.774797592010103 0.2081246447612875 57.69905361133856 0 1 0
890 0 10 0.425 2.1089216581933683 0.371407889274843 58.74292043576536 0 1 0
197 2 7 1.575 5.381178 5.57944 60.678416999999996 0 0 0
172 0 10 0.425 8.112289645735302 7.088333215544536 59.15821939554814 0 0 0
1044 0 8 -1.05 6.404343000000001 0.3162749999999974 59.655252 0 1 0
1042 0 9 -0.975 4.454572664292751 2.2660575703611943 59.80167660091032 0 1 0
1046 2 7 1.575 6.441178000000001 2.3994399999999985 59.618416999999994 0 1 0
1041 2 7 1.575 4.321178 0.27943999999999747 59.618416999999994 0 1 0
1059 0 9 -0.975 6.537275522830927 4.421753992329231 59.76444903090217 0 1 0
1045 0 3 -0.804 6.5128189896194675 2.950802760117583 57.698686091917544 0 1 0
1058 0 10 0.425 6.349485187701729 4.61107875393434 58.74447967032478 0 1 0
1040 0 10 0.425 3.8713179541558844 2.8492595009996378 59.158609414783584 0 1 0
163 0 9 -0.975 8.694430627155919 6.506138487365247 59.80317519959217 0 0 0
164 0 8 -1.05 10.644341999999998 4.556274999999999 59.655252 0 0 0
165 2 7 1.575 10.681178 6.6394400000000005 59.618416999999994 0 0 0
162 2 7 1.575 8.561177999999998 4.5194399999999995 59.618416999999994 0 0 0
166 0 3 -0.804 10.731586279090402 7.179864749031585 57.703891556418654 0 0 0
1064 2 7 1.575 9.621178 1.3394399999999997 60.678416999999996 0 1 0
1039 0 9 -0.975 10.777791100593817 0.18236034442188923 59.76436755760293 0 1 0
1037 0 8 -1.05 8.524343 2.4362749999999984 59.581582000000004 0 1 0
1049 0 3 -0.804 8.019619542555523 4.4697283760956505 57.704149999700086 0 1 0
1038 0 10 0.425 10.5893236226976 0.3712580352276172 58.744490819660285 0 1 0
1188 0 10 0.425 12.352002789032706 2.848660202201273 59.158254196166126 0 1 0
28 2 7 1.575 1.1411779999999991 9.81944 60.678416999999996 0 0 0
3 0 9 -0.975 2.29749293038818 8.662283199291048 59.76390922728162 0 0 0
1 0 8 -1.05 0.04434299999999958 10.916274999999999 59.581582000000004 0 0 0
7 0 3 -0.804 3.7824677642793954 8.709378005953067 57.70385194844813 0 0 0
2 0 10 0.425 2.1093288189478954 8.851308274626591 58.74394130475041 0 0 0
156 0 8 -1.05 6.404343000000001 8.796274999999998 59.655252 0 0 0
154 0 9 -0.975 4.454765236902575 10.74624805130324 59.80275274130107 0 0 0
158 2 7 1.575 6.441178000000001 10.879439999999999 59.618416999999994 0 0 0
153 2 7 1.575 4.321178 8.759439999999998 59.618416999999994 0 0 0
157 0 3 -0.804 6.500577905249474 11.427012396202473 57.70197244035664 0 0 0
152 0 10 0.425 3.872478952032971 11.328426281779098 59.15783334599387 0 0 0
176 2 7 1.575 9.621178 9.81944 60.678416999999996 0 0 0
151 0 9 -0.975 10.778657810743587 8.663283009229609 59.76412896579482 0 0 0
149 0 8 -1.05 8.524343 10.916274999999999 59.581582000000004 0 0 0
150 0 10 0.425 10.58970781781646 8.851341443359953 58.74412263317114 0 0 0
155 0 3 -0.804 12.24963270640968 8.687508794680731 57.69858464331172 0 0 0
1043 0 3 -0.804 12.256988636064857 0.22339179156548417 57.70227839404027 0 1 0
41 0 8 -1.05 0.11801299999999859 4.556274999999999 61.701581999999995 0 0 0
42 0 8 -1.05 2.1643419999999987 6.6026050000000005 61.701581999999995 0 0 0
39 0 8 -1.05 0.04434299999999958 6.676275 63.82158199999999 0 0 0
43 2 7 1.575 2.2011779999999987 4.5194399999999995 61.73841699999999 0 0 0
40 2 7 1.575 0.08117799999999864 6.6394400000000005 61.73841699999999 0 0 0
45 1 7 1.575 3.2611779999999992 7.69944 62.798417 0 0 0
920 0 8 -1.05 4.284343 2.4362749999999984 63.82158199999999 0 1 0
917 0 8 -1.05 2.1643419999999987 0.3162749999999974 63.89525199999999 0 1 0
934 0 8 -1.05 4.284343 4.4826049999999995 61.775251999999995 0 1 0
932 0 8 -1.05 2.2380129999999987 4.4826049999999995 63.82158199999999 0 1 0
913 0 8 -1.05 0.04434299999999958 0.24260500000000107 61.775251999999995 0 1 0
919 0 8 -1.05 2.2380129999999987 2.4362749999999984 61.775251999999995 0 1 0
915 0 8 -1.05 0.11801299999999859 2.3626039999999975 63.89525199999999 0 1 0
914 2 6 1.05 0.08117799999999864 0.27943999999999747 63.858416999999996 0 1 0
918 2 6 1.05 2.2011779999999987 2.3994399999999985 63.858416999999996 0 1 0
200 0 8 -1.05 6.478013000000001 6.676275 61.775251999999995 0 0 0
196 0 8 -1.05 4.358013 6.6026050000000005 63.89525199999999 0 0 0
198 0 8 -1.05 6.404343000000001 4.556274999999999 63.89525199999999 0 0 0
195 2 6 1.05 4.321178 4.5194399999999995 63.858416999999996 0 0 0
199 2 6 1.05 6.441178000000001 6.6394400000000005 63.858416999999996 0 0 0
1071 0 8 -1.05 6.404343000000001 2.3626039999999975 61.701581999999995 0 1 0
1073 0 8 -1.05 6.478013000000001 0.24260500000000107 63.82158199999999 0 1 0
1070 0 8 -1.05 4.358013 0.3162749999999974 61.701581999999995 0 1 0
1069 2 7 1.575 4.321178 2.3994399999999985 61.73841699999999 0 1 0
1072 2 7 1.575 6.441178000000001 0.27943999999999747 61.73841699999999 0 1 0
1074 1 7 1.575 7.501178 3.459439999999997 62.798417 0 1 0
189 0 8 -1.05 8.598012999999998 4.556274999999999 61.701581999999995 0 0 0
190 0 8 -1.05 10.644341999999998 6.6026050000000005 61.701581999999995 0 0 0
187 0 8 -1.05 8.524343 6.676275 63.82158199999999 0 0 0
191 2 7 1.575 10.681178 4.5194399999999995 61.73841699999999 0 0 0
188 2 7 1.575 8.561177999999998 6.6394400000000005 61.73841699999999 0 0 0
193 1 7 1.575 11.741178 7.69944 62.798417 0 0 0
1065 0 8 -1.05 10.644341999999998 0.3162749999999974 63.89525199999999 0 1 0
1080 0 8 -1.05 10.718013 4.4826049999999995 63.82158199999999 0 1 0
1061 0 8 -1.05 8.524343 0.24260500000000107 61.775251999999995 0 1 0
1067 0 8 -1.05 10.718013 2.4362749999999984 61.775251999999995 0 1 0
1063 0 8 -1.05 8.598012999999998 2.3626039999999975 63.89525199999999 0 1 0
1062 2 6 1.05 8.561177999999998 0.27943999999999747 63.858416999999996 0 1 0
1066 2 6 1.05 10.681178 2.3994399999999985 63.858416999999996 0 1 0
32 0 8 -1.05 4.284343 10.916274999999999 63.82158199999999 0 0 0
29 0 8 -1.05 2.1643419999999987 8.796274999999998 63.89525199999999 0 0 0
25 0 8 -1.05 0.04434299999999958 8.722605 61.775251999999995 0 0 0
31 0 8 -1.05 2.2380129999999987 10.916274999999999 61.775251999999995 0 0 0
27 0 8 -1.05 0.11801299999999859 10.842603999999998 63.89525199999999 0 0 0
26 2 6 1.05 0.08117799999999864 8.759439999999998 63.858416999999996 0 0 0
30 2 6 1.05 2.2011779999999987 10.879439999999999 63.858416999999996 0 0 0
183 0 8 -1.05 6.404343000000001 10.842603999999998 61.701581999999995 0 0 0
185 0 8 -1.05 6.478013000000001 8.722605 63.82158199999999 0 0 0
182 0 8 -1.05 4.358013 8.796274999999998 61.701581999999995 0 0 0
181 2 7 1.575 4.321178 10.879439999999999 61.73841699999999 0 0 0
184 2 7 1.575 6.441178000000001 8.759439999999998 61.73841699999999 0 0 0
186 1 7 1.575 7.501178 11.93944 62.798417 0 0 0
177 0 8 -1.05 10.644341999999998 8.796274999999998 63.89525199999999 0 0 0
173 0 8 -1.05 8.524343 8.722605 61.775251999999995 0 0 0
179 0 8 -1.05 10.718013 10.916274999999999 61.775251999999995 0 0 0
175 0 8 -1.05 8.598012999999998 10.842603999999998 63.89525199999999 0 0 0
174 2 6 1.05 8.561177999999998 8.759439999999998 63.858416999999996 0 0 0
178 2 6 1.05 10.681178 10.879439999999999 63.858416999999996 0 0 0
88 0 8 -1.05 0.11801299999999859 4.556274999999999 70.18158199999998 0 0 0
89 0 8 -1.05 0.11801299999999859 6.6026050000000005 68.135252 0 0 0
91 0 8 -1.05 2.1643419999999987 6.6026050000000005 70.18158199999998 0 0 0
90 0 8 -1.05 2.1643419999999987 4.556274999999999 68.135252 0 0 0
68 2 6 1.05 2.2011779999999987 6.6394400000000005 68.09841699999998 0 0 0
92 2 7 1.575 2.2011779999999987 4.5194399999999995 70.21841699999999 0 0 0
87 2 7 1.575 0.08117799999999864 6.6394400000000005 70.21841699999999 0 0 0
66 2 6 1.05 0.08117799999999864 4.5194399999999995 68.09841699999998 0 0 0
93 1 7 1.575 3.2611779999999992 7.69944 71.27841699999999 0 0 0
69 0 8 -1.05 2.2380129999999987 6.676275 66.01525199999999 0 0 0
70 0 8 -1.05 4.284343 6.676275 68.06158199999999 0 0 0
67 1 7 1.575 1.1411779999999991 5.57944 64.91841699999998 0 0 0
982 0 8 -1.05 4.284343 4.4826049999999995 70.25525199999998 0 1 0
965 0 8 -1.05 0.04434299999999958 0.24260500000000107 70.25525199999998 0 1 0
967 0 8 -1.05 2.2380129999999987 2.4362749999999984 70.25525199999998 0 1 0
966 1 7 1.575 1.1411779999999991 1.3394399999999997 69.158417 0 1 0
944 0 8 -1.05 2.1643419999999987 2.3626039999999975 65.94158099999999 0 1 0
946 0 8 -1.05 2.2380129999999987 0.24260500000000107 68.06158199999999 0 1 0
953 0 8 -1.05 0.04434299999999958 4.4826049999999995 66.01525199999999 0 1 0
941 0 8 -1.05 0.04434299999999958 2.4362749999999984 68.06158199999999 0 1 0
943 0 8 -1.05 0.11801299999999859 0.3162749999999974 65.94158099999999 0 1 0
948 0 8 -1.05 4.284343 0.24260500000000107 66.01525199999999 0 1 0
942 2 7 1.575 0.08117799999999864 2.3994399999999985 65.978417 0 1 0
945 2 7 1.575 2.2011779999999987 0.27943999999999747 65.978417 0 1 0
947 1 7 1.575 3.2611779999999992 3.459439999999997 67.038417 0 1 0
244 0 8 -1.05 6.478013000000001 6.676275 70.25525199999998 0 0 0
243 1 7 1.575 5.381178 5.57944 69.158417 0 0 0
220 0 8 -1.05 4.358013 4.556274999999999 65.94158099999999 0 0 0
221 0 8 -1.05 6.404343000000001 6.6026050000000005 65.94158099999999 0 0 0
222 2 7 1.575 6.441178000000001 4.5194399999999995 65.978417 0 0 0
219 2 7 1.575 4.321178 6.6394400000000005 65.978417 0 0 0
224 1 7 1.575 7.501178 7.69944 67.038417 0 0 0
1119 0 8 -1.05 6.404343000000001 0.3162749999999974 68.135252 0 1 0
1120 0 8 -1.05 6.404343000000001 2.3626039999999975 70.18158199999998 0 1 0
1118 0 8 -1.05 4.358013 2.3626039999999975 68.135252 0 1 0
1117 0 8 -1.05 4.358013 0.3162749999999974 70.18158199999998 0 1 0
1099 2 6 1.05 6.441178000000001 2.3994399999999985 68.09841699999998 0 1 0
1097 2 6 1.05 4.321178 0.27943999999999747 68.09841699999998 0 1 0
1116 2 7 1.575 4.321178 2.3994399999999985 70.21841699999999 0 1 0
1121 2 7 1.575 6.441178000000001 0.27943999999999747 70.21841699999999 0 1 0
1122 1 7 1.575 7.501178 3.459439999999997 71.27841699999999 0 1 0
1100 0 8 -1.05 6.478013000000001 2.4362749999999984 66.01525199999999 0 1 0
1111 0 8 -1.05 6.478013000000001 4.4826049999999995 68.06158199999999 0 1 0
1098 1 7 1.575 5.381178 1.3394399999999997 64.91841699999998 0 1 0
236 0 8 -1.05 8.598012999999998 4.556274999999999 70.18158199999998 0 0 0
237 0 8 -1.05 8.598012999999998 6.6026050000000005 68.135252 0 0 0
239 0 8 -1.05 10.644341999999998 6.6026050000000005 70.18158199999998 0 0 0
238 0 8 -1.05 10.644341999999998 4.556274999999999 68.135252 0 0 0
216 2 6 1.05 10.681178 6.6394400000000005 68.09841699999998 0 0 0
240 2 7 1.575 10.681178 4.5194399999999995 70.21841699999999 0 0 0
235 2 7 1.575 8.561177999999998 6.6394400000000005 70.21841699999999 0 0 0
214 2 6 1.05 8.561177999999998 4.5194399999999995 68.09841699999998 0 0 0
241 1 7 1.575 11.741178 7.69944 71.27841699999999 0 0 0
217 0 8 -1.05 10.718013 6.676275 66.01525199999999 0 0 0
215 1 7 1.575 9.621178 5.57944 64.91841699999998 0 0 0
1113 0 8 -1.05 8.524343 0.24260500000000107 70.25525199999998 0 1 0
1115 0 8 -1.05 10.718013 2.4362749999999984 70.25525199999998 0 1 0
1114 1 7 1.575 9.621178 1.3394399999999997 69.158417 0 1 0
1092 0 8 -1.05 10.644341999999998 2.3626039999999975 65.94158099999999 0 1 0
1094 0 8 -1.05 10.718013 0.24260500000000107 68.06158199999999 0 1 0
1101 0 8 -1.05 8.524343 4.4826049999999995 66.01525199999999 0 1 0
1089 0 8 -1.05 8.524343 2.4362749999999984 68.06158199999999 0 1 0
1091 0 8 -1.05 8.598012999999998 0.3162749999999974 65.94158099999999 0 1 0
1090 2 7 1.575 8.561177999999998 2.3994399999999985 65.978417 0 1 0
1093 2 7 1.575 10.681178 0.27943999999999747 65.978417 0 1 0
1095 1 7 1.575 11.741178 3.459439999999997 67.038417 0 1 0
77 0 8 -1.05 0.04434299999999958 8.722605 70.25525199999998 0 0 0
79 0 8 -1.05 2.2380129999999987 10.916274999999999 70.25525199999998 0 0 0
78 1 7 1.575 1.1411779999999991 9.81944 69.158417 0 0 0
56 0 8 -1.05 2.1643419999999987 10.842603999999998 65.94158099999999 0 0 0
58 0 8 -1.05 2.2380129999999987 8.722605 68.06158199999999 0 0 0
53 0 8 -1.05 0.04434299999999958 10.916274999999999 68.06158199999999 0 0 0
55 0 8 -1.05 0.11801299999999859 8.796274999999998 65.94158099999999 0 0 0
60 0 8 -1.05 4.284343 8.722605 66.01525199999999 0 0 0
54 2 7 1.575 0.08117799999999864 10.879439999999999 65.978417 0 0 0
57 2 7 1.575 2.2011779999999987 8.759439999999998 65.978417 0 0 0
59 1 7 1.575 3.2611779999999992 11.93944 67.038417 0 0 0
231 0 8 -1.05 6.404343000000001 8.796274999999998 68.135252 0 0 0
232 0 8 -1.05 6.404343000000001 10.842603999999998 70.18158199999998 0 0 0
230 0 8 -1.05 4.358013 10.842603999999998 68.135252 0 0 0
229 0 8 -1.05 4.358013 8.796274999999998 70.18158199999998 0 0 0
211 2 6 1.05 6.441178000000001 10.879439999999999 68.09841699999998 0 0 0
209 2 6 1.05 4.321178 8.759439999999998 68.09841699999998 0 0 0
228 2 7 1.575 4.321178 10.879439999999999 70.21841699999999 0 0 0
233 2 7 1.575 6.441178000000001 8.759439999999998 70.21841699999999 0 0 0
234 1 7 1.575 7.501178 11.93944 71.27841699999999 0 0 0
212 0 8 -1.05 6.478013000000001 10.916274999999999 66.01525199999999 0 0 0
210 1 7 1.575 5.381178 9.81944 64.91841699999998 0 0 0
225 0 8 -1.05 8.524343 8.722605 70.25525199999998 0 0 0
227 0 8 -1.05 10.718013 10.916274999999999 70.25525199999998 0 0 0
226 1 7 1.575 9.621178 9.81944 69.158417 0 0 0
204 0 8 -1.05 10.644341999999998 10.842603999999998 65.94158099999999 0 0 0
206 0 8 -1.05 10.718013 8.722605 68.06158199999999 0 0 0
201 0 8 -1.05 8.524343 10.916274999999999 68.06158199999999 0 0 0
203 0 8 -1.05 8.598012999999998 8.796274999999998 65.94158099999999 0 0 0
202 2 7 1.575 8.561177999999998 10.879439999999999 65.978417 0 0 0
205 2 7 1.575 10.681178 8.759439999999998 65.978417 0 0 0
207 1 7 1.575 11.741178 11.93944 67.038417 0 0 0
115 0 8 -1.05 2.2380129999999987 6.676275 74.49525199999998 0 0 0
112 0 8 -1.05 0.04434299999999958 6.676275 72.30158199999998 0 0 0
113 1 7 1.575 1.1411779999999991 5.57944 73.398417 0 0 0
990 0 8 -1.05 2.1643419999999987 2.3626039999999975 74.421581 0 1 0
995 0 8 -1.05 4.284343 2.4362749999999984 72.30158199999998 0 1 0
999 0 8 -1.05 0.04434299999999958 4.4826049999999995 74.49525199999998 0 1 0
989 0 8 -1.05 2.1643419999999987 0.3162749999999974 72.37525199999999 0 1 0
1002 0 8 -1.05 2.2380129999999987 4.4826049999999995 72.30158199999998 0 1 0
987 0 8 -1.05 0.11801299999999859 0.3162749999999974 74.421581 0 1 0
994 0 8 -1.05 4.284343 0.24260500000000107 74.49525199999998 0 1 0
988 0 8 -1.05 0.11801299999999859 2.3626039999999975 72.37525199999999 0 1 0
985 2 6 1.05 0.08117799999999864 0.27943999999999747 72.33841699999998 0 1 0
986 2 7 1.575 0.08117799999999864 2.3994399999999985 74.458417 0 1 0
991 2 7 1.575 2.2011779999999987 0.27943999999999747 74.458417 0 1 0
992 2 6 1.05 2.2011779999999987 2.3994399999999985 72.33841699999998 0 1 0
267 0 8 -1.05 4.358013 6.6026050000000005 72.37525199999999 0 0 0
266 0 8 -1.05 4.358013 4.556274999999999 74.421581 0 0 0
268 0 8 -1.05 6.404343000000001 4.556274999999999 72.37525199999999 0 0 0
269 0 8 -1.05 6.404343000000001 6.6026050000000005 74.421581 0 0 0
264 2 6 1.05 4.321178 4.5194399999999995 72.33841699999998 0 0 0
270 2 7 1.575 6.441178000000001 4.5194399999999995 74.458417 0 0 0
265 2 7 1.575 4.321178 6.6394400000000005 74.458417 0 0 0
271 2 6 1.05 6.441178000000001 6.6394400000000005 72.33841699999998 0 0 0
1145 0 8 -1.05 6.478013000000001 0.24260500000000107 72.30158199999998 0 1 0
1146 0 8 -1.05 6.478013000000001 2.4362749999999984 74.49525199999998 0 1 0
1144 1 7 1.575 5.381178 1.3394399999999997 73.398417 0 1 0
263 0 8 -1.05 10.718013 6.676275 74.49525199999998 0 0 0
260 0 8 -1.05 8.524343 6.676275 72.30158199999998 0 0 0
261 1 7 1.575 9.621178 5.57944 73.398417 0 0 0
1138 0 8 -1.05 10.644341999999998 2.3626039999999975 74.421581 0 1 0
1147 0 8 -1.05 8.524343 4.4826049999999995 74.49525199999998 0 1 0
1137 0 8 -1.05 10.644341999999998 0.3162749999999974 72.37525199999999 0 1 0
1150 0 8 -1.05 10.718013 4.4826049999999995 72.30158199999998 0 1 0
1135 0 8 -1.05 8.598012999999998 0.3162749999999974 74.421581 0 1 0
1136 0 8 -1.05 8.598012999999998 2.3626039999999975 72.37525199999999 0 1 0
1133 2 6 1.05 8.561177999999998 0.27943999999999747 72.33841699999998 0 1 0
1134 2 7 1.575 8.561177999999998 2.3994399999999985 74.458417 0 1 0
1139 2 7 1.575 10.681178 0.27943999999999747 74.458417 0 1 0
1140 2 6 1.05 10.681178 2.3994399999999985 72.33841699999998 0 1 0
102 0 8 -1.05 2.1643419999999987 10.842603999999998 74.421581 0 0 0
107 0 8 -1.05 4.284343 10.916274999999999 72.30158199999998 0 0 0
101 0 8 -1.05 2.1643419999999987 8.796274999999998 72.37525199999999 0 0 0
99 0 8 -1.05 0.11801299999999859 8.796274999999998 74.421581 0 0 0
106 0 8 -1.05 4.284343 8.722605 74.49525199999998 0 0 0
100 0 8 -1.05 0.11801299999999859 10.842603999999998 72.37525199999999 0 0 0
97 2 6 1.05 0.08117799999999864 8.759439999999998 72.33841699999998 0 0 0
98 2 7 1.575 0.08117799999999864 10.879439999999999 74.458417 0 0 0
103 2 7 1.575 2.2011779999999987 8.759439999999998 74.458417 0 0 0
104 2 6 1.05 2.2011779999999987 10.879439999999999 72.33841699999998 0 0 0
257 0 8 -1.05 6.478013000000001 8.722605 72.30158199999998 0 0 0
258 0 8 -1.05 6.478013000000001 10.916274999999999 74.49525199999998 0 0 0
256 1 7 1.575 5.381178 9.81944 73.398417 0 0 0
250 0 8 -1.05 10.644341999999998 10.842603999999998 74.421581 0 0 0
249 0 8 -1.05 10.644341999999998 8.796274999999998 72.37525199999999 0 0 0
247 0 8 -1.05 8.598012999999998 8.796274999999998 74.421581 0 0 0
248 0 8 -1.05 8.598012999999998 10.842603999999998 72.37525199999999 0 0 0
245 2 6 1.05 8.561177999999998 8.759439999999998 72.33841699999998 0 0 0
246 2 7 1.575 8.561177999999998 10.879439999999999 74.458417 0 0 0
251 2 7 1.575 10.681178 8.759439999999998 74.458417 0 0 0
252 2 6 1.05 10.681178 10.879439999999999 72.33841699999998 0 0 0
143 2 7 1.575 2.2011779999999987 6.6394400000000005 76.578417 0 0 0
137 2 7 1.575 0.08117799999999864 4.5194399999999995 76.578417 0 0 0
142 0 9 -0.975 2.1048229646424823 4.616205750423038 76.43363897424865 0 0 0
138 0 8 -1.05 0.11801299999999859 6.6026050000000005 76.615252 0 0 0
145 0 9 -0.975 4.187667818926447 6.772625860572495 76.3949077838248 0 0 0
144 0 3 -0.804 2.1309097079992263 6.089971688584467 78.49790443553394 0 0 0
139 0 3 -0.804 0.6205666231890918 4.5744808704627316 78.49414931249702 0 0 0
146 0 10 0.425 4.770855807618813 6.1895326628710965 77.03817176956352 0 0 0
128 0 10 0.425 2.2931110171865905 4.427213020654968 77.4535754040564 0 0 0
1015 0 8 -1.05 2.2380129999999987 0.24260500000000107 76.54158199999999 0 1 0
288 0 1 0.731 9.768840803311644 5.434188417335706 79.08295182242509 0 0 0
993 2 7 1.575 3.2611779999999992 3.459439999999997 75.51841699999999 0 1 0
1014 0 10 0.425 0.5301917669445506 1.9502011199469291 77.03862254977774 0 1 0
272 2 7 1.575 7.501178 7.69944 75.51841699999999 0 0 0
296 0 10 0.425 6.532582144891547 8.667093833873022 77.45314373010748 0 0 0
1166 2 7 1.575 4.321178 0.27943999999999747 76.578417 0 1 0
1172 2 7 1.575 6.441178000000001 2.3994399999999985 76.578417 0 1 0
1167 0 8 -1.05 4.358013 2.3626039999999975 76.615252 0 1 0
1170 0 9 -0.975 6.3441641495602 0.3757411160799017 76.43324074790112 0 1 0
1183 0 8 -1.05 6.478013000000001 4.4826049999999995 76.54158199999999 0 1 0
1171 0 3 -0.804 6.380151858636789 1.8546717607199192 78.49543662511482 0 1 0
1165 0 3 -0.804 4.8661862022940285 0.3428016266405437 78.4959925228717 0 1 0
291 2 7 1.575 10.681178 6.6394400000000005 76.578417 0 0 0
285 2 7 1.575 8.561177999999998 4.5194399999999995 76.578417 0 0 0
290 0 9 -0.975 10.584392700279848 4.6166149199676765 76.43197685352793 0 0 0
286 0 8 -1.05 8.598012999999998 6.6026050000000005 76.615252 0 0 0
292 0 3 -0.804 10.622158137672422 6.093425336059881 78.4950552559534 0 0 0
287 0 3 -0.804 9.109252535494303 4.5805721529902375 78.49553711240226 0 0 0
276 0 10 0.425 10.773245323393738 4.42837018922119 77.45204498102859 0 0 0
1163 0 8 -1.05 10.718013 0.24260500000000107 76.54158199999999 0 1 0
1161 0 9 -0.975 8.427491949776321 2.533110948187501 76.39478609968256 0 1 0
1141 2 7 1.575 11.741178 3.459439999999997 75.51841699999999 0 1 0
1162 0 10 0.425 9.009668136380576 1.9509108598290914 77.03974783172714 0 1 0
127 0 8 -1.05 2.2380129999999987 8.722605 76.54158199999999 0 0 0
281 0 2 -0.123 5.35527665589898 9.854927459926015 80.15330453903448 0 0 0
105 2 7 1.575 3.2611779999999992 11.93944 75.51841699999999 0 0 0
126 0 10 0.425 0.5303863793555118 10.430078755836377 77.03865184113455 0 0 0
280 0 1 0.731 5.529329718654242 9.678167739915315 79.08348203756434 0 0 0
278 2 7 1.575 4.321178 8.759439999999998 76.578417 0 0 0
284 2 7 1.575 6.441178000000001 10.879439999999999 76.578417 0 0 0
279 0 8 -1.05 4.358013 10.842603999999998 76.615252 0 0 0
282 0 9 -0.975 6.344004328060234 8.855652372017968 76.43314385233785 0 0 0
283 0 3 -0.804 6.382957526139537 10.336230802010803 78.49471607777353 0 0 0
277 0 3 -0.804 4.868511471510047 8.824865757649668 78.49688698351308 0 0 0
275 0 8 -1.05 10.718013 8.722605 76.54158199999999 0 0 0
273 0 9 -0.975 8.427681094584331 11.012838272291257 76.39432425459269 0 0 0
253 2 7 1.575 11.741178 11.93944 75.51841699999999 0 0 0
274 0 10 0.425 9.009900213963128 10.430613340161447 77.03919812252502 0 0 0
289 0 2 -0.123 9.59323981837646 5.610273992415825 80.15256815271587 0 0 0
140 0 1 0.731 1.2785493097404659 5.427348470264552 79.08398191589157 0 0 0
141 0 2 -0.123 1.103012247611306 5.5982523813247465 80.15453911678352 0 0 0
1168 0 1 0.731 5.52529386922057 1.1968892892758658 79.08303650117956 0 1 0
1169 0 2 -0.123 5.34797438221956 1.3751039786403143 80.1520632688039 0 1 0
293 0 9 -0.975 12.667928821595511 6.772843906672028 76.3943973514032 0 0 0
1184 0 10 0.425 6.532425704982853 0.18679594239642935 77.45324406979454 0 1 0
464 0 1 0.731 3.123426481071193 16.32028762250278 57.11337317730873 0 0 0
463 0 2 -0.123 3.3028606218268957 16.141640833280462 56.04467965597552 0 0 0
612 0 1 0.731 11.585042098625665 16.317638718626593 57.11424034279815 0 0 0
611 0 2 -0.123 11.75980948872761 16.13731615527216 56.04522642235393 0 0 0
908 0 1 0.731 3.114132327550921 24.793354955978298 57.114193002596984 0 0 0
907 0 2 -0.123 3.2922993935545324 24.609711889063373 56.046227233621714 0 0 0
604 0 1 0.731 7.357939488884281 20.55780217408855 57.11408890753921 0 0 0
603 0 2 -0.123 7.537234069205629 20.37652486733357 56.045897904713584 0 0 0
161 0 3 -0.804 8.013055312430765 12.940191919891934 57.701794816329645 0 0 0
1053 2 7 1.575 10.681178 23.59944 59.618416999999994 0 0 0
744 0 10 0.425 12.35231885651984 19.80779762651971 59.15726411780895 0 0 0
459 0 9 -0.975 0.21475674633741734 14.985894051813055 59.80190555978398 0 0 0
460 0 8 -1.05 2.1643419999999987 13.036275 59.655252 0 0 0
461 2 7 1.575 2.2011779999999987 15.11944 59.618416999999994 0 0 0
458 2 7 1.575 0.08117799999999864 12.99944 59.618416999999994 0 0 0
465 0 8 -1.05 4.284343 15.156275 59.581582000000004 0 0 0
462 0 3 -0.804 2.2680225672391856 15.662286199205973 57.700086595839984 0 0 0
171 0 9 -0.975 6.538392710846275 12.902339870003043 59.76550682800688 0 0 0
170 0 10 0.425 6.350040706560202 13.090904742989471 58.7453521647792 0 0 0
641 2 7 1.575 5.381178 14.05944 60.678416999999996 0 0 0
616 0 10 0.425 8.112020840399605 15.568220341006128 59.15809167485796 0 0 0
599 0 3 -0.804 12.246239786982372 17.17127716192766 57.69950088328987 0 0 0
607 0 9 -0.975 8.694347798370814 14.985788148938234 59.80274456168927 0 0 0
608 0 8 -1.05 10.644341999999998 13.036275 59.655252 0 0 0
609 2 7 1.575 10.681178 15.11944 59.618416999999994 0 0 0
606 2 7 1.575 8.561177999999998 12.99944 59.618416999999994 0 0 0
610 0 3 -0.804 10.730706151594392 15.661134030087789 57.703931157482636 0 0 0
472 2 7 1.575 1.1411779999999991 18.29944 60.678416999999996 0 0 0
447 0 9 -0.975 2.297488616968519 17.143453030374687 59.76169057705307 0 0 0
445 0 8 -1.05 0.04434299999999958 19.396275 59.581582000000004 0 0 0
1050 2 7 1.575 8.561177999999998 21.47944 59.618416999999994 0 0 0
451 0 3 -0.804 3.7805305635311175 17.175691764774385 57.70073299820761 0 0 0
446 0 10 0.425 2.1093212967236505 17.332523359629754 58.74168698497498 0 0 0
903 0 9 -0.975 0.21463550968575906 23.466494574731545 59.80316866931047 0 0 0
904 0 8 -1.05 2.1643419999999987 21.516275 59.655252 0 0 0
905 2 7 1.575 2.2011779999999987 23.59944 59.618416999999994 0 0 0
902 2 7 1.575 0.08117799999999864 21.47944 59.618416999999994 0 0 0
909 0 8 -1.05 4.284343 23.636275 59.581582000000004 0 0 0
906 0 3 -0.804 2.2571074629209327 24.13995516352581 57.70296090845944 0 0 0
600 0 8 -1.05 6.404343000000001 17.276275 59.655252 0 0 0
598 0 9 -0.975 4.454431551237164 19.226126626057866 59.80243999002929 0 0 0
602 2 7 1.575 6.441178000000001 19.35944 59.618416999999994 0 0 0
597 2 7 1.575 4.321178 17.23944 59.618416999999994 0 0 0
615 0 9 -0.975 6.537765127715714 21.383062421013506 59.7628705906795 0 0 0
601 0 3 -0.804 6.502003502257723 19.90135174913849 57.70172807215845 0 0 0
614 0 10 0.425 6.348891970285581 21.57132994773209 58.74288757745442 0 0 0
596 0 10 0.425 3.8718583489477445 19.80884906882623 59.15826995569069 0 0 0
1085 2 7 1.575 5.381178 22.53944 60.678416999999996 0 0 0
1060 0 10 0.425 8.11137088654224 24.049133326101646 59.158715743337694 0 0 0
620 2 7 1.575 9.621178 18.29944 60.678416999999996 0 0 0
595 0 9 -0.975 10.778314376290634 17.14220804611454 59.76550962782914 0 0 0
593 0 8 -1.05 8.524343 19.396275 59.581582000000004 0 0 0
605 0 3 -0.804 8.015987546784924 21.413279050712728 57.700243369985394 0 0 0
594 0 10 0.425 10.589316288742527 17.33018576921353 58.745452517940215 0 0 0
1051 0 9 -0.975 8.694470951148842 23.46615568852169 59.802121274325344 0 0 0
1052 0 8 -1.05 10.644341999999998 21.516275 59.655252 0 0 0
1056 0 1 0.731 11.596226497271303 24.812593811158578 57.11252572402572 0 0 0
1054 0 3 -0.804 10.746418522903381 24.148150359467184 57.70016285263954 0 0 0
1055 0 2 -0.123 11.765820125902593 24.64582172168161 56.04040796067959 0 0 0
46 0 8 -1.05 4.284343 12.962605 61.775251999999995 0 0 0
44 0 8 -1.05 2.2380129999999987 12.962605 63.82158199999999 0 0 0
485 0 8 -1.05 0.11801299999999859 13.036275 61.701581999999995 0 0 0
486 0 8 -1.05 2.1643419999999987 15.082605000000001 61.701581999999995 0 0 0
483 0 8 -1.05 0.04434299999999958 15.156275 63.82158199999999 0 0 0
487 2 7 1.575 2.2011779999999987 12.99944 61.73841699999999 0 0 0
484 2 7 1.575 0.08117799999999864 15.11944 61.73841699999999 0 0 0
489 1 7 1.575 3.2611779999999992 16.17944 62.798417 0 0 0
644 0 8 -1.05 6.478013000000001 15.156275 61.775251999999995 0 0 0
640 0 8 -1.05 4.358013 15.082605000000001 63.89525199999999 0 0 0
642 0 8 -1.05 6.404343000000001 13.036275 63.89525199999999 0 0 0
639 2 6 1.05 4.321178 12.99944 63.858416999999996 0 0 0
643 2 6 1.05 6.441178000000001 15.11944 63.858416999999996 0 0 0
192 0 8 -1.05 10.718013 12.962605 63.82158199999999 0 0 0
633 0 8 -1.05 8.598012999999998 13.036275 61.701581999999995 0 0 0
634 0 8 -1.05 10.644341999999998 15.082605000000001 61.701581999999995 0 0 0
631 0 8 -1.05 8.524343 15.156275 63.82158199999999 0 0 0
635 2 7 1.575 10.681178 12.99944 61.73841699999999 0 0 0
632 2 7 1.575 8.561177999999998 15.11944 61.73841699999999 0 0 0
637 1 7 1.575 11.741178 16.17944 62.798417 0 0 0
476 0 8 -1.05 4.284343 19.396275 63.82158199999999 0 0 0
473 0 8 -1.05 2.1643419999999987 17.276275 63.89525199999999 0 0 0
490 0 8 -1.05 4.284343 21.442605 61.775251999999995 0 0 0
488 0 8 -1.05 2.2380129999999987 21.442605 63.82158199999999 0 0 0
469 0 8 -1.05 0.04434299999999958 17.202605 61.775251999999995 0 0 0
475 0 8 -1.05 2.2380129999999987 19.396275 61.775251999999995 0 0 0
471 0 8 -1.05 0.11801299999999859 19.322604 63.89525199999999 0 0 0
470 2 6 1.05 0.08117799999999864 17.23944 63.858416999999996 0 0 0
474 2 6 1.05 2.2011779999999987 19.35944 63.858416999999996 0 0 0
929 0 8 -1.05 0.11801299999999859 21.516275 61.701581999999995 0 0 0