LAMMPS data file via write_data, version 29 Sep 2021, timestep = 129600

1332 atoms
10 atom types
180 bonds
6 bond types
324 angles
6 angle types
0 dihedrals
2 dihedral types
36 impropers
2 improper types

0 25.44 xlo xhi
0 25.44 ylo yhi
35.929417 100.267417 zlo zhi

Masses

1 12.011
2 1.008
3 15.9994
4 15.9994
5 1.008
6 55.845
7 55.845
8 15.9994
9 15.9994
10 1.008

Pair Coeffs # lj/cut/coul/long

1 0.0988 3.31521
2 0.0161 2.4473
3 0.1463 3.04812
4 0.093 3.24287
5 0.0047 0.537925
6 9.0298e-07 4.9062
7 9.0298e-07 4.9062
8 0.1554 3.16554
9 0.1554 3.16554
10 0 0

Bond Coeffs # harmonic

1 361.8 1.105
2 652.57 1.218
3 383.13 1.351
4 563.51 0.973
5 554.135 1
6 0 2.08

Angle Coeffs # harmonic

1 51.617 106.55
2 65.93 123.65
3 65.262 109.49
4 115.745 122.1
5 118.817 130.25
6 30 109.47

Dihedral Coeffs # fourier

1 1 2.3 2 180
2 2 2.3 2 180 1.9 1 0

Improper Coeffs # cvff

1 10.5 -1 2
2 10.5 -1 2

Atoms # full

20 0 1 0.731 3.438 7.678 57.029417 0 0 0
19 0 2 -0.123 3.438 7.678 55.929417 0 0 0
1048 0 1 0.731 7.500761 3.4590229999999984 57.029417 0 1 0
1047 0 2 -0.123 7.500761 3.4590229999999984 55.929417 0 1 0
168 0 1 0.731 11.918000000000001 7.678 57.029417 0 0 0
167 0 2 -0.123 11.918000000000001 7.678 55.929417 0 0 0
160 0 1 0.731 7.500761 11.939022999999999 57.029417 0 0 0
159 0 2 -0.123 7.500761 11.939022999999999 55.929417 0 0 0
15 0 9 -0.975 0.11801299999999859 6.6026050000000005 59.655252 0 0 0
16 0 8 -1.05 2.1643419999999987 4.556274999999999 59.655252 0 0 0
17 2 7 1.575 2.2011779999999987 6.6394400000000005 59.618416999999994 0 0 0
14 2 7 1.575 0.08117799999999864 4.5194399999999995 59.618416999999994 0 0 0
21 0 8 -1.05 4.284343 6.676275 59.581582000000004 0 0 0
18 0 3 -0.804 2.378 6.618 57.729417 0 0 0
916 2 7 1.575 1.1411779999999991 1.3394399999999997 60.678416999999996 0 1 0
891 0 9 -0.975 2.2380129999999987 0.24260500000000107 59.581582000000004 0 1 0
889 0 8 -1.05 0.04434299999999958 2.4362749999999984 59.581582000000004 0 1 0
901 0 3 -0.804 0.08076099999999897 4.519023000000001 57.729417 0 1 0
895 0 3 -0.804 4.498 0.2579999999999991 57.729417 0 1 0
890 0 10 0.425 1.5799999999999996 0.9400000000000013 59.136417 0 1 0
197 2 7 1.575 5.381178 5.57944 60.678416999999996 0 0 0
172 0 10 0.425 7.94 7.300000000000001 59.136417 0 0 0
1044 0 8 -1.05 6.404343000000001 0.3162749999999974 59.655252 0 1 0
1042 0 9 -0.975 4.358013 2.3626039999999975 59.655252 0 1 0
1046 2 7 1.575 6.441178000000001 2.3994399999999985 59.618416999999994 0 1 0
1041 2 7 1.575 4.321178 0.27943999999999747 59.618416999999994 0 1 0
1059 0 9 -0.975 6.478013000000001 4.4826049999999995 59.581582000000004 0 1 0
1045 0 3 -0.804 6.440761 2.3990229999999997 57.729417 0 1 0
1058 0 10 0.425 5.642761 5.201023000000003 59.136417 0 1 0
1040 0 10 0.425 3.522760999999999 3.0810229999999983 59.136417 0 1 0
163 0 9 -0.975 8.598012999999998 6.6026050000000005 59.655252 0 0 0
164 0 8 -1.05 10.644341999999998 4.556274999999999 59.655252 0 0 0
165 2 7 1.575 10.681178 6.6394400000000005 59.618416999999994 0 0 0
162 2 7 1.575 8.561177999999998 4.5194399999999995 59.618416999999994 0 0 0
166 0 3 -0.804 10.858 6.618 57.729417 0 0 0
1064 2 7 1.575 9.621178 1.3394399999999997 60.678416999999996 0 1 0
1039 0 9 -0.975 10.718013 0.24260500000000107 59.581582000000004 0 1 0
1037 0 8 -1.05 8.524343 2.4362749999999984 59.581582000000004 0 1 0
1049 0 3 -0.804 8.560761 4.519023000000001 57.729417 0 1 0
1038 0 10 0.425 10.06 0.9400000000000013 59.136417 0 1 0
1188 0 10 0.425 12.002761 3.0810229999999983 59.136417 0 1 0
28 2 7 1.575 1.1411779999999991 9.81944 60.678416999999996 0 0 0
3 0 9 -0.975 2.2380129999999987 8.722605 59.581582000000004 0 0 0
1 0 8 -1.05 0.04434299999999958 10.916274999999999 59.581582000000004 0 0 0
7 0 3 -0.804 4.498 8.738 57.729417 0 0 0
2 0 10 0.425 1.5799999999999996 9.42 59.136417 0 0 0
156 0 8 -1.05 6.404343000000001 8.796274999999998 59.655252 0 0 0
154 0 9 -0.975 4.358013 10.842603999999998 59.655252 0 0 0
158 2 7 1.575 6.441178000000001 10.879439999999999 59.618416999999994 0 0 0
153 2 6 1.05 4.321178 8.759439999999998 59.618416999999994 0 0 0
157 0 3 -0.804 6.440761 10.879023 57.729417 0 0 0
152 0 10 0.425 3.522760999999999 11.561023 59.136417 0 0 0
176 2 7 1.575 9.621178 9.81944 60.678416999999996 0 0 0
151 0 9 -0.975 10.718013 8.722605 59.581582000000004 0 0 0
149 0 8 -1.05 8.524343 10.916274999999999 59.581582000000004 0 0 0
150 0 10 0.425 10.06 9.42 59.136417 0 0 0
300 0 10 0.425 12.002761 11.561023 59.136417 0 0 0
41 0 8 -1.05 0.11801299999999859 4.556274999999999 61.701581999999995 0 0 0
42 0 8 -1.05 2.1643419999999987 6.6026050000000005 61.701581999999995 0 0 0
39 0 8 -1.05 0.04434299999999958 6.676275 63.82158199999999 0 0 0
43 2 7 1.575 2.2011779999999987 4.5194399999999995 61.73841699999999 0 0 0
40 2 7 1.575 0.08117799999999864 6.6394400000000005 61.73841699999999 0 0 0
45 1 7 1.575 3.2611779999999992 7.69944 62.798417 0 0 0
920 0 8 -1.05 4.284343 2.4362749999999984 63.82158199999999 0 1 0
917 0 8 -1.05 2.1643419999999987 0.3162749999999974 63.89525199999999 0 1 0
934 0 8 -1.05 4.284343 4.4826049999999995 61.775251999999995 0 1 0
932 0 8 -1.05 2.2380129999999987 4.4826049999999995 63.82158199999999 0 1 0
913 0 8 -1.05 0.04434299999999958 0.24260500000000107 61.775251999999995 0 1 0
919 0 8 -1.05 2.2380129999999987 2.4362749999999984 61.775251999999995 0 1 0
915 0 8 -1.05 0.11801299999999859 2.3626039999999975 63.89525199999999 0 1 0
914 2 6 1.05 0.08117799999999864 0.27943999999999747 63.858416999999996 0 1 0
918 2 7 1.575 2.2011779999999987 2.3994399999999985 63.858416999999996 0 1 0
200 0 8 -1.05 6.478013000000001 6.676275 61.775251999999995 0 0 0
196 0 8 -1.05 4.358013 6.6026050000000005 63.89525199999999 0 0 0
198 0 8 -1.05 6.404343000000001 4.556274999999999 63.89525199999999 0 0 0
195 2 6 1.05 4.321178 4.5194399999999995 63.858416999999996 0 0 0
199 2 7 1.575 6.441178000000001 6.6394400000000005 63.858416999999996 0 0 0
1071 0 8 -1.05 6.404343000000001 2.3626039999999975 61.701581999999995 0 1 0
1073 0 8 -1.05 6.478013000000001 0.24260500000000107 63.82158199999999 0 1 0
1070 0 8 -1.05 4.358013 0.3162749999999974 61.701581999999995 0 1 0
1069 2 7 1.575 4.321178 2.3994399999999985 61.73841699999999 0 1 0
1072 2 7 1.575 6.441178000000001 0.27943999999999747 61.73841699999999 0 1 0
1074 1 7 1.575 7.501178 3.459439999999997 62.798417 0 1 0
189 0 8 -1.05 8.598012999999998 4.556274999999999 61.701581999999995 0 0 0
190 0 8 -1.05 10.644341999999998 6.6026050000000005 61.701581999999995 0 0 0
187 0 8 -1.05 8.524343 6.676275 63.82158199999999 0 0 0
191 2 7 1.575 10.681178 4.5194399999999995 61.73841699999999 0 0 0
188 2 7 1.575 8.561177999999998 6.6394400000000005 61.73841699999999 0 0 0
193 1 7 1.575 11.741178 7.69944 62.798417 0 0 0
1065 0 8 -1.05 10.644341999999998 0.3162749999999974 63.89525199999999 0 1 0
1080 0 8 -1.05 10.718013 4.4826049999999995 63.82158199999999 0 1 0
1061 0 8 -1.05 8.524343 0.24260500000000107 61.775251999999995 0 1 0
1067 0 8 -1.05 10.718013 2.4362749999999984 61.775251999999995 0 1 0
1063 0 8 -1.05 8.598012999999998 2.3626039999999975 63.89525199999999 0 1 0
1062 2 7 1.575 8.561177999999998 0.27943999999999747 63.858416999999996 0 1 0
1066 2 7 1.575 10.681178 2.3994399999999985 63.858416999999996 0 1 0
32 0 8 -1.05 4.284343 10.916274999999999 63.82158199999999 0 0 0
29 0 8 -1.05 2.1643419999999987 8.796274999999998 63.89525199999999 0 0 0
25 0 8 -1.05 0.04434299999999958 8.722605 61.775251999999995 0 0 0
31 0 8 -1.05 2.2380129999999987 10.916274999999999 61.775251999999995 0 0 0
27 0 8 -1.05 0.11801299999999859 10.842603999999998 63.89525199999999 0 0 0
26 2 7 1.575 0.08117799999999864 8.759439999999998 63.858416999999996 0 0 0
30 2 7 1.575 2.2011779999999987 10.879439999999999 63.858416999999996 0 0 0
183 0 8 -1.05 6.404343000000001 10.842603999999998 61.701581999999995 0 0 0
185 0 8 -1.05 6.478013000000001 8.722605 63.82158199999999 0 0 0
182 0 8 -1.05 4.358013 8.796274999999998 61.701581999999995 0 0 0
181 2 7 1.575 4.321178 10.879439999999999 61.73841699999999 0 0 0
184 2 7 1.575 6.441178000000001 8.759439999999998 61.73841699999999 0 0 0
186 1 7 1.575 7.501178 11.93944 62.798417 0 0 0
177 0 8 -1.05 10.644341999999998 8.796274999999998 63.89525199999999 0 0 0
173 0 8 -1.05 8.524343 8.722605 61.775251999999995 0 0 0
179 0 8 -1.05 10.718013 10.916274999999999 61.775251999999995 0 0 0
175 0 8 -1.05 8.598012999999998 10.842603999999998 63.89525199999999 0 0 0
174 2 6 1.05 8.561177999999998 8.759439999999998 63.858416999999996 0 0 0
178 2 6 1.05 10.681178 10.879439999999999 63.858416999999996 0 0 0
88 0 8 -1.05 0.11801299999999859 4.556274999999999 70.18158199999998 0 0 0
89 0 8 -1.05 0.11801299999999859 6.6026050000000005 68.135252 0 0 0
91 0 8 -1.05 2.1643419999999987 6.6026050000000005 70.18158199999998 0 0 0
90 0 8 -1.05 2.1643419999999987 4.556274999999999 68.135252 0 0 0
68 2 6 1.05 2.2011779999999987 6.6394400000000005 68.09841699999998 0 0 0
92 2 7 1.575 2.2011779999999987 4.5194399999999995 70.21841699999999 0 0 0
87 2 7 1.575 0.08117799999999864 6.6394400000000005 70.21841699999999 0 0 0
66 2 7 1.575 0.08117799999999864 4.5194399999999995 68.09841699999998 0 0 0
93 1 7 1.575 3.2611779999999992 7.69944 71.27841699999999 0 0 0
69 0 8 -1.05 2.2380129999999987 6.676275 66.01525199999999 0 0 0
70 0 8 -1.05 4.284343 6.676275 68.06158199999999 0 0 0
67 1 7 1.575 1.1411779999999991 5.57944 64.91841699999998 0 0 0
982 0 8 -1.05 4.284343 4.4826049999999995 70.25525199999998 0 1 0
965 0 8 -1.05 0.04434299999999958 0.24260500000000107 70.25525199999998 0 1 0
967 0 8 -1.05 2.2380129999999987 2.4362749999999984 70.25525199999998 0 1 0
966 1 7 1.575 1.1411779999999991 1.3394399999999997 69.158417 0 1 0
944 0 8 -1.05 2.1643419999999987 2.3626039999999975 65.94158099999999 0 1 0
946 0 8 -1.05 2.2380129999999987 0.24260500000000107 68.06158199999999 0 1 0
953 0 8 -1.05 0.04434299999999958 4.4826049999999995 66.01525199999999 0 1 0
941 0 8 -1.05 0.04434299999999958 2.4362749999999984 68.06158199999999 0 1 0
943 0 8 -1.05 0.11801299999999859 0.3162749999999974 65.94158099999999 0 1 0
948 0 8 -1.05 4.284343 0.24260500000000107 66.01525199999999 0 1 0
942 2 7 1.575 0.08117799999999864 2.3994399999999985 65.978417 0 1 0
945 2 6 1.05 2.2011779999999987 0.27943999999999747 65.978417 0 1 0
947 1 7 1.575 3.2611779999999992 3.459439999999997 67.038417 0 1 0
244 0 8 -1.05 6.478013000000001 6.676275 70.25525199999998 0 0 0
243 1 7 1.575 5.381178 5.57944 69.158417 0 0 0
220 0 8 -1.05 4.358013 4.556274999999999 65.94158099999999 0 0 0
221 0 8 -1.05 6.404343000000001 6.6026050000000005 65.94158099999999 0 0 0
222 2 6 1.05 6.441178000000001 4.5194399999999995 65.978417 0 0 0
219 2 7 1.575 4.321178 6.6394400000000005 65.978417 0 0 0
224 1 7 1.575 7.501178 7.69944 67.038417 0 0 0
1119 0 8 -1.05 6.404343000000001 0.3162749999999974 68.135252 0 1 0
1120 0 8 -1.05 6.404343000000001 2.3626039999999975 70.18158199999998 0 1 0
1118 0 8 -1.05 4.358013 2.3626039999999975 68.135252 0 1 0
1117 0 8 -1.05 4.358013 0.3162749999999974 70.18158199999998 0 1 0
1099 2 7 1.575 6.441178000000001 2.3994399999999985 68.09841699999998 0 1 0
1097 2 7 1.575 4.321178 0.27943999999999747 68.09841699999998 0 1 0
1116 2 7 1.575 4.321178 2.3994399999999985 70.21841699999999 0 1 0
1121 2 7 1.575 6.441178000000001 0.27943999999999747 70.21841699999999 0 1 0
1122 1 7 1.575 7.501178 3.459439999999997 71.27841699999999 0 1 0
1100 0 8 -1.05 6.478013000000001 2.4362749999999984 66.01525199999999 0 1 0
1111 0 8 -1.05 6.478013000000001 4.4826049999999995 68.06158199999999 0 1 0
1098 1 7 1.575 5.381178 1.3394399999999997 64.91841699999998 0 1 0
236 0 8 -1.05 8.598012999999998 4.556274999999999 70.18158199999998 0 0 0
237 0 8 -1.05 8.598012999999998 6.6026050000000005 68.135252 0 0 0
239 0 8 -1.05 10.644341999999998 6.6026050000000005 70.18158199999998 0 0 0
238 0 8 -1.05 10.644341999999998 4.556274999999999 68.135252 0 0 0
216 2 7 1.575 10.681178 6.6394400000000005 68.09841699999998 0 0 0
240 2 7 1.575 10.681178 4.5194399999999995 70.21841699999999 0 0 0
235 2 7 1.575 8.561177999999998 6.6394400000000005 70.21841699999999 0 0 0
214 2 7 1.575 8.561177999999998 4.5194399999999995 68.09841699999998 0 0 0
241 1 7 1.575 11.741178 7.69944 71.27841699999999 0 0 0
217 0 8 -1.05 10.718013 6.676275 66.01525199999999 0 0 0
215 1 7 1.575 9.621178 5.57944 64.91841699999998 0 0 0
1113 0 8 -1.05 8.524343 0.24260500000000107 70.25525199999998 0 1 0
1115 0 8 -1.05 10.718013 2.4362749999999984 70.25525199999998 0 1 0
1114 1 7 1.575 9.621178 1.3394399999999997 69.158417 0 1 0
1092 0 8 -1.05 10.644341999999998 2.3626039999999975 65.94158099999999 0 1 0
1094 0 8 -1.05 10.718013 0.24260500000000107 68.06158199999999 0 1 0
1101 0 8 -1.05 8.524343 4.4826049999999995 66.01525199999999 0 1 0
1089 0 8 -1.05 8.524343 2.4362749999999984 68.06158199999999 0 1 0
1091 0 8 -1.05 8.598012999999998 0.3162749999999974 65.94158099999999 0 1 0
1090 2 6 1.05 8.561177999999998 2.3994399999999985 65.978417 0 1 0
1093 2 7 1.575 10.681178 0.27943999999999747 65.978417 0 1 0
1095 1 7 1.575 11.741178 3.459439999999997 67.038417 0 1 0
77 0 8 -1.05 0.04434299999999958 8.722605 70.25525199999998 0 0 0
79 0 8 -1.05 2.2380129999999987 10.916274999999999 70.25525199999998 0 0 0
78 1 7 1.575 1.1411779999999991 9.81944 69.158417 0 0 0
56 0 8 -1.05 2.1643419999999987 10.842603999999998 65.94158099999999 0 0 0
58 0 8 -1.05 2.2380129999999987 8.722605 68.06158199999999 0 0 0
53 0 8 -1.05 0.04434299999999958 10.916274999999999 68.06158199999999 0 0 0
55 0 8 -1.05 0.11801299999999859 8.796274999999998 65.94158099999999 0 0 0
60 0 8 -1.05 4.284343 8.722605 66.01525199999999 0 0 0
54 2 7 1.575 0.08117799999999864 10.879439999999999 65.978417 0 0 0
57 2 6 1.05 2.2011779999999987 8.759439999999998 65.978417 0 0 0
59 1 7 1.575 3.2611779999999992 11.93944 67.038417 0 0 0
231 0 8 -1.05 6.404343000000001 8.796274999999998 68.135252 0 0 0
232 0 8 -1.05 6.404343000000001 10.842603999999998 70.18158199999998 0 0 0
230 0 8 -1.05 4.358013 10.842603999999998 68.135252 0 0 0
229 0 8 -1.05 4.358013 8.796274999999998 70.18158199999998 0 0 0
211 2 6 1.05 6.441178000000001 10.879439999999999 68.09841699999998 0 0 0
209 2 7 1.575 4.321178 8.759439999999998 68.09841699999998 0 0 0
228 2 7 1.575 4.321178 10.879439999999999 70.21841699999999 0 0 0
233 2 6 1.05 6.441178000000001 8.759439999999998 70.21841699999999 0 0 0
234 1 7 1.575 7.501178 11.93944 71.27841699999999 0 0 0
212 0 8 -1.05 6.478013000000001 10.916274999999999 66.01525199999999 0 0 0
210 1 7 1.575 5.381178 9.81944 64.91841699999998 0 0 0
225 0 8 -1.05 8.524343 8.722605 70.25525199999998 0 0 0
227 0 8 -1.05 10.718013 10.916274999999999 70.25525199999998 0 0 0
226 1 7 1.575 9.621178 9.81944 69.158417 0 0 0
204 0 8 -1.05 10.644341999999998 10.842603999999998 65.94158099999999 0 0 0
206 0 8 -1.05 10.718013 8.722605 68.06158199999999 0 0 0
201 0 8 -1.05 8.524343 10.916274999999999 68.06158199999999 0 0 0
203 0 8 -1.05 8.598012999999998 8.796274999999998 65.94158099999999 0 0 0
202 2 7 1.575 8.561177999999998 10.879439999999999 65.978417 0 0 0
205 2 7 1.575 10.681178 8.759439999999998 65.978417 0 0 0
207 1 7 1.575 11.741178 11.93944 67.038417 0 0 0
115 0 8 -1.05 2.2380129999999987 6.676275 74.49525199999998 0 0 0
112 0 8 -1.05 0.04434299999999958 6.676275 72.30158199999998 0 0 0
113 1 7 1.575 1.1411779999999991 5.57944 73.398417 0 0 0
990 0 8 -1.05 2.1643419999999987 2.3626039999999975 74.421581 0 1 0
995 0 8 -1.05 4.284343 2.4362749999999984 72.30158199999998 0 1 0
999 0 8 -1.05 0.04434299999999958 4.4826049999999995 74.49525199999998 0 1 0
989 0 8 -1.05 2.1643419999999987 0.3162749999999974 72.37525199999999 0 1 0
1002 0 8 -1.05 2.2380129999999987 4.4826049999999995 72.30158199999998 0 1 0
987 0 8 -1.05 0.11801299999999859 0.3162749999999974 74.421581 0 1 0
994 0 8 -1.05 4.284343 0.24260500000000107 74.49525199999998 0 1 0
988 0 8 -1.05 0.11801299999999859 2.3626039999999975 72.37525199999999 0 1 0
985 2 7 1.575 0.08117799999999864 0.27943999999999747 72.33841699999998 0 1 0
986 2 7 1.575 0.08117799999999864 2.3994399999999985 74.458417 0 1 0
991 2 7 1.575 2.2011779999999987 0.27943999999999747 74.458417 0 1 0
992 2 7 1.575 2.2011779999999987 2.3994399999999985 72.33841699999998 0 1 0
267 0 8 -1.05 4.358013 6.6026050000000005 72.37525199999999 0 0 0
266 0 8 -1.05 4.358013 4.556274999999999 74.421581 0 0 0
268 0 8 -1.05 6.404343000000001 4.556274999999999 72.37525199999999 0 0 0
269 0 8 -1.05 6.404343000000001 6.6026050000000005 74.421581 0 0 0
264 2 6 1.05 4.321178 4.5194399999999995 72.33841699999998 0 0 0
270 2 6 1.05 6.441178000000001 4.5194399999999995 74.458417 0 0 0
265 2 7 1.575 4.321178 6.6394400000000005 74.458417 0 0 0
271 2 6 1.05 6.441178000000001 6.6394400000000005 72.33841699999998 0 0 0
1145 0 8 -1.05 6.478013000000001 0.24260500000000107 72.30158199999998 0 1 0
1146 0 8 -1.05 6.478013000000001 2.4362749999999984 74.49525199999998 0 1 0
1144 1 7 1.575 5.381178 1.3394399999999997 73.398417 0 1 0
263 0 8 -1.05 10.718013 6.676275 74.49525199999998 0 0 0
260 0 8 -1.05 8.524343 6.676275 72.30158199999998 0 0 0
261 1 7 1.575 9.621178 5.57944 73.398417 0 0 0
1138 0 8 -1.05 10.644341999999998 2.3626039999999975 74.421581 0 1 0
1147 0 8 -1.05 8.524343 4.4826049999999995 74.49525199999998 0 1 0
1137 0 8 -1.05 10.644341999999998 0.3162749999999974 72.37525199999999 0 1 0
1150 0 8 -1.05 10.718013 4.4826049999999995 72.30158199999998 0 1 0
1135 0 8 -1.05 8.598012999999998 0.3162749999999974 74.421581 0 1 0
1136 0 8 -1.05 8.598012999999998 2.3626039999999975 72.37525199999999 0 1 0
1133 2 7 1.575 8.561177999999998 0.27943999999999747 72.33841699999998 0 1 0
1134 2 7 1.575 8.561177999999998 2.3994399999999985 74.458417 0 1 0
1139 2 7 1.575 10.681178 0.27943999999999747 74.458417 0 1 0
1140 2 6 1.05 10.681178 2.3994399999999985 72.33841699999998 0 1 0
102 0 8 -1.05 2.1643419999999987 10.842603999999998 74.421581 0 0 0
107 0 8 -1.05 4.284343 10.916274999999999 72.30158199999998 0 0 0
101 0 8 -1.05 2.1643419999999987 8.796274999999998 72.37525199999999 0 0 0
99 0 8 -1.05 0.11801299999999859 8.796274999999998 74.421581 0 0 0
106 0 8 -1.05 4.284343 8.722605 74.49525199999998 0 0 0
100 0 8 -1.05 0.11801299999999859 10.842603999999998 72.37525199999999 0 0 0
97 2 7 1.575 0.08117799999999864 8.759439999999998 72.33841699999998 0 0 0
98 2 7 1.575 0.08117799999999864 10.879439999999999 74.458417 0 0 0
103 2 7 1.575 2.2011779999999987 8.759439999999998 74.458417 0 0 0
104 2 7 1.575 2.2011779999999987 10.879439999999999 72.33841699999998 0 0 0
257 0 8 -1.05 6.478013000000001 8.722605 72.30158199999998 0 0 0
258 0 8 -1.05 6.478013000000001 10.916274999999999 74.49525199999998 0 0 0
256 1 7 1.575 5.381178 9.81944 73.398417 0 0 0
250 0 8 -1.05 10.644341999999998 10.842603999999998 74.421581 0 0 0
249 0 8 -1.05 10.644341999999998 8.796274999999998 72.37525199999999 0 0 0
247 0 8 -1.05 8.598012999999998 8.796274999999998 74.421581 0 0 0
248 0 8 -1.05 8.598012999999998 10.842603999999998 72.37525199999999 0 0 0
245 2 7 1.575 8.561177999999998 8.759439999999998 72.33841699999998 0 0 0
246 2 7 1.575 8.561177999999998 10.879439999999999 74.458417 0 0 0
251 2 6 1.05 10.681178 8.759439999999998 74.458417 0 0 0
252 2 6 1.05 10.681178 10.879439999999999 72.33841699999998 0 0 0
143 2 7 1.575 2.2011779999999987 6.6394400000000005 76.578417 0 0 0
137 2 7 1.575 0.08117799999999864 4.5194399999999995 76.578417 0 0 0
142 0 9 -0.975 2.1643419999999987 4.556274999999999 76.615252 0 0 0
138 0 8 -1.05 0.11801299999999859 6.6026050000000005 76.615252 0 0 0
145 0 9 -0.975 4.284343 6.676275 76.54158199999999 0 0 0
144 0 3 -0.804 2.378 6.618 78.467417 0 0 0
139 0 3 -0.804 0.258 4.498 78.467417 0 0 0
146 0 10 0.425 5.3 5.7 77.060417 0 0 0
128 0 10 0.425 3.18 3.58 77.060417 0 0 0
1015 0 8 -1.05 2.2380129999999987 0.24260500000000107 76.54158199999999 0 1 0
1013 0 9 -0.975 0.04434299999999958 2.4362749999999984 76.54158199999999 0 1 0
993 2 7 1.575 3.2611779999999992 3.459439999999997 75.51841699999999 0 1 0
1014 0 10 0.425 0.8827609999999995 1.4810230000000004 77.060417 0 1 0
272 2 7 1.575 7.501178 7.69944 75.51841699999999 0 0 0
296 0 10 0.425 7.242761 7.841023 77.060417 0 0 0
1166 2 7 1.575 4.321178 0.27943999999999747 76.578417 0 1 0
1172 2 7 1.575 6.441178000000001 2.3994399999999985 76.578417 0 1 0
1167 0 8 -1.05 4.358013 2.3626039999999975 76.615252 0 1 0
1170 0 9 -0.975 6.404343000000001 0.3162749999999974 76.615252 0 1 0
1183 0 8 -1.05 6.478013000000001 4.4826049999999995 76.54158199999999 0 1 0
1171 0 3 -0.804 6.440761 2.3990229999999997 78.467417 0 1 0
1165 0 3 -0.804 4.320761 0.2790229999999987 78.467417 0 1 0
291 2 7 1.575 10.681178 6.6394400000000005 76.578417 0 0 0
285 2 7 1.575 8.561177999999998 4.5194399999999995 76.578417 0 0 0
290 0 9 -0.975 10.644341999999998 4.556274999999999 76.615252 0 0 0
286 0 8 -1.05 8.598012999999998 6.6026050000000005 76.615252 0 0 0
292 0 3 -0.804 10.858 6.618 78.467417 0 0 0
287 0 3 -0.804 8.738 4.498 78.467417 0 0 0
276 0 10 0.425 11.66 3.58 77.060417 0 0 0
1163 0 8 -1.05 10.718013 0.24260500000000107 76.54158199999999 0 1 0
1161 0 9 -0.975 8.524343 2.4362749999999984 76.54158199999999 0 1 0
1141 2 7 1.575 11.741178 3.459439999999997 75.51841699999999 0 1 0
1162 0 10 0.425 9.362760999999999 1.4810230000000004 77.060417 0 1 0
127 0 8 -1.05 2.2380129999999987 8.722605 76.54158199999999 0 0 0
125 0 9 -0.975 0.04434299999999958 10.916274999999999 76.54158199999999 0 0 0
105 2 7 1.575 3.2611779999999992 11.93944 75.51841699999999 0 0 0
126 0 10 0.425 0.8827609999999995 9.961023 77.060417 0 0 0
572 0 10 0.425 3.18 12.06 77.060417 0 0 0
278 2 7 1.575 4.321178 8.759439999999998 76.578417 0 0 0
284 2 7 1.575 6.441178000000001 10.879439999999999 76.578417 0 0 0
279 0 8 -1.05 4.358013 10.842603999999998 76.615252 0 0 0
282 0 9 -0.975 6.404343000000001 8.796274999999998 76.615252 0 0 0
283 0 3 -0.804 6.440761 10.879023 78.467417 0 0 0
277 0 3 -0.804 4.320761 8.759023 78.467417 0 0 0
275 0 8 -1.05 10.718013 8.722605 76.54158199999999 0 0 0
273 0 9 -0.975 8.524343 10.916274999999999 76.54158199999999 0 0 0
253 2 7 1.575 11.741178 11.93944 75.51841699999999 0 0 0
274 0 10 0.425 9.362760999999999 9.961023 77.060417 0 0 0
720 0 10 0.425 11.66 12.06 77.060417 0 0 0
140 0 1 0.731 1.318 5.558 79.167417 0 0 0
141 0 2 -0.123 1.318 5.558 80.267417 0 0 0
1168 0 1 0.731 5.380761 1.339023000000001 79.167417 0 1 0
1169 0 2 -0.123 5.380761 1.339023000000001 80.267417 0 1 0
288 0 1 0.731 9.798 5.558 79.167417 0 0 0
289 0 2 -0.123 9.798 5.558 80.267417 0 0 0
280 0 1 0.731 5.380761 9.819023 79.167417 0 0 0
281 0 2 -0.123 5.380761 9.819023 80.267417 0 0 0
464 0 1 0.731 3.438 16.158 57.029417 0 0 0
463 0 2 -0.123 3.438 16.158 55.929417 0 0 0
612 0 1 0.731 11.918000000000001 16.158 57.029417 0 0 0
611 0 2 -0.123 11.918000000000001 16.158 55.929417 0 0 0
908 0 1 0.731 3.438 24.638 57.029417 0 0 0
907 0 2 -0.123 3.438 24.638 55.929417 0 0 0
604 0 1 0.731 7.500761 20.419023 57.029417 0 0 0
603 0 2 -0.123 7.500761 20.419023 55.929417 0 0 0
1056 0 1 0.731 11.918000000000001 24.638 57.029417 0 0 0
1055 0 2 -0.123 11.918000000000001 24.638 55.929417 0 0 0
13 0 3 -0.804 0.08076099999999897 12.999023000000001 57.729417 0 0 0
459 0 9 -0.975 0.11801299999999859 15.082605000000001 59.655252 0 0 0
460 0 8 -1.05 2.1643419999999987 13.036275 59.655252 0 0 0
461 2 7 1.575 2.2011779999999987 15.11944 59.618416999999994 0 0 0
458 2 7 1.575 0.08117799999999864 12.99944 59.618416999999994 0 0 0
465 0 8 -1.05 4.284343 15.156275 59.581582000000004 0 0 0
462 0 3 -0.804 2.378 15.098 57.729417 0 0 0
171 0 9 -0.975 6.478013000000001 12.962605 59.581582000000004 0 0 0
170 0 10 0.425 5.642761 13.681023000000001 59.136417 0 0 0
641 2 7 1.575 5.381178 14.05944 60.678416999999996 0 0 0
616 0 10 0.425 7.94 15.780000000000001 59.136417 0 0 0
161 0 3 -0.804 8.560761 12.999023000000001 57.729417 0 0 0
607 0 9 -0.975 8.598012999999998 15.082605000000001 59.655252 0 0 0
608 0 8 -1.05 10.644341999999998 13.036275 59.655252 0 0 0
609 2 7 1.575 10.681178 15.11944 59.618416999999994 0 0 0
606 2 7 1.575 8.561177999999998 12.99944 59.618416999999994 0 0 0
610 0 3 -0.804 10.858 15.098 57.729417 0 0 0
472 2 7 1.575 1.1411779999999991 18.29944 60.678416999999996 0 0 0
447 0 9 -0.975 2.2380129999999987 17.202605 59.581582000000004 0 0 0
445 0 8 -1.05 0.04434299999999958 19.396275 59.581582000000004 0 0 0
457 0 3 -0.804 0.08076099999999897 21.479023 57.729417 0 0 0
451 0 3 -0.804 4.498 17.218 57.729417 0 0 0
446 0 10 0.425 1.5799999999999996 17.9 59.136417 0 0 0
903 0 9 -0.975 0.11801299999999859 23.562605 59.655252 0 0 0
904 0 8 -1.05 2.1643419999999987 21.516275 59.655252 0 0 0
905 2 7 1.575 2.2011779999999987 23.59944 59.618416999999994 0 0 0
902 2 7 1.575 0.08117799999999864 21.47944 59.618416999999994 0 0 0
909 0 8 -1.05 4.284343 23.636275 59.581582000000004 0 0 0
906 0 3 -0.804 2.378 23.578000000000003 57.729417 0 0 0
600 0 8 -1.05 6.404343000000001 17.276275 59.655252 0 0 0
598 0 9 -0.975 4.358013 19.322604 59.655252 0 0 0
602 2 7 1.575 6.441178000000001 19.35944 59.618416999999994 0 0 0
597 2 6 1.05 4.321178 17.23944 59.618416999999994 0 0 0
615 0 9 -0.975 6.478013000000001 21.442605 59.581582000000004 0 0 0
601 0 3 -0.804 6.440761 19.359023 57.729417 0 0 0
614 0 10 0.425 5.642761 22.161023 59.136417 0 0 0
596 0 10 0.425 3.522760999999999 20.041023000000003 59.136417 0 0 0
1085 2 7 1.575 5.381178 22.53944 60.678416999999996 0 0 0
1060 0 10 0.425 7.94 24.26 59.136417 0 0 0
620 2 7 1.575 9.621178 18.29944 60.678416999999996 0 0 0
595 0 9 -0.975 10.718013 17.202605 59.581582000000004 0 0 0
593 0 8 -1.05 8.524343 19.396275 59.581582000000004 0 0 0
605 0 3 -0.804 8.560761 21.479023 57.729417 0 0 0
594 0 10 0.425 10.06 17.9 59.136417 0 0 0
1051 0 9 -0.975 8.598012999999998 23.562605 59.655252 0 0 0
1052 0 8 -1.05 10.644341999999998 21.516275 59.655252 0 0 0
1053 2 7 1.575 10.681178 23.59944 59.618416999999994 0 0 0
1050 2 7 1.575 8.561177999999998 21.47944 59.618416999999994 0 0 0
1054 0 3 -0.804 10.858 23.578000000000003 57.729417 0 0 0
744 0 10 0.425 12.002761 20.041023000000003 59.136417 0 0 0
46 0 8 -1.05 4.284343 12.962605 61.775251999999995 0 0 0
44 0 8 -1.05 2.2380129999999987 12.962605 63.82158199999999 0 0 0
485 0 8 -1.05 0.11801299999999859 13.036275 61.701581999999995 0 0 0
486 0 8 -1.05 2.1643419999999987 15.082605000000001 61.701581999999995 0 0 0
483 0 8 -1.05 0.04434299999999958 15.156275 63.82158199999999 0 0 0
487 2 7 1.575 2.2011779999999987 12.99944 61.73841699999999 0 0 0
484 2 7 1.575 0.08117799999999864 15.11944 61.73841699999999 0 0 0
489 1 7 1.575 3.2611779999999992 16.17944 62.798417 0 0 0
644 0 8 -1.05 6.478013000000001 15.156275 61.775251999999995 0 0 0
640 0 8 -1.05 4.358013 15.082605000000001 63.89525199999999 0 0 0
642 0 8 -1.05 6.404343000000001 13.036275 63.89525199999999 0 0 0
639 2 6 1.05 4.321178 12.99944 63.858416999999996 0 0 0
643 2 7 1.575 6.441178000000001 15.11944 63.858416999999996 0 0 0
192 0 8 -1.05 10.718013 12.962605 63.82158199999999 0 0 0
633 0 8 -1.05 8.598012999999998 13.036275 61.701581999999995 0 0 0
634 0 8 -1.05 10.644341999999998 15.082605000000001 61.701581999999995 0 0 0
631 0 8 -1.05 8.524343 15.156275 63.82158199999999 0 0 0
635 2 6 1.05 10.681178 12.99944 61.73841699999999 0 0 0
632 2 7 1.575 8.561177999999998 15.11944 61.73841699999999 0 0 0
637 1 7 1.575 11.741178 16.17944 62.798417 0 0 0
476 0 8 -1.05 4.284343 19.396275 63.82158199999999 0 0 0
473 0 8 -1.05 2.1643419999999987 17.276275 63.89525199999999 0 0 0
490 0 8 -1.05 4.284343 21.442605 61.775251999999995 0 0 0
488 0 8 -1.05 2.2380129999999987 21.442605 63.82158199999999 0 0 0
469 0 8 -1.05 0.04434299999999958 17.202605 61.775251999999995 0 0 0
475 0 8 -1.05 2.2380129999999987 19.396275 61.775251999999995 0 0 0
471 0 8 -1.05 0.11801299999999859 19.322604 63.89525199999999 0 0 0
470 2 7 1.575 0.08117799999999864 17.23944 63.858416999999996 0 0 0
474 2 6 1.05 2.2011779999999987 19.35944 63.858416999999996 0 0 0
929 0 8 -1.05 0.11801299999999859 21.516275 61.701581999999995 0 0 0
930 0 8 -1.05 2.1643419999999987 23.562605 61.701581999999995 0 0 0
927 0 8 -1.05 0.04434299999999958 23.636275 63.82158199999999 0 0 0
931 2 7 1.575 2.2011779999999987 21.47944 61.73841699999999 0 0 0
928 2 7 1.575 0.08117799999999864 23.59944 61.73841699999999 0 0 0
933 1 7 1.575 3.2611779999999992 24.65944 62.798417 0 0 0
627 0 8 -1.05 6.404343000000001 19.322604 61.701581999999995 0 0 0
629 0 8 -1.05 6.478013000000001 17.202605 63.82158199999999 0 0 0
626 0 8 -1.05 4.358013 17.276275 61.701581999999995 0 0 0
625 2 7 1.575 4.321178 19.35944 61.73841699999999 0 0 0
628 2 7 1.575 6.441178000000001 17.23944 61.73841699999999 0 0 0
630 1 7 1.575 7.501178 20.41944 62.798417 0 0 0
1088 0 8 -1.05 6.478013000000001 23.636275 61.775251999999995 0 0 0
1084 0 8 -1.05 4.358013 23.562605 63.89525199999999 0 0 0
1086 0 8 -1.05 6.404343000000001 21.516275 63.89525199999999 0 0 0
1083 2 7 1.575 4.321178 21.47944 63.858416999999996 0 0 0
1087 2 6 1.05 6.441178000000001 23.59944 63.858416999999996 0 0 0
621 0 8 -1.05 10.644341999999998 17.276275 63.89525199999999 0 0 0
636 0 8 -1.05 10.718013 21.442605 63.82158199999999 0 0 0
617 0 8 -1.05 8.524343 17.202605 61.775251999999995 0 0 0
623 0 8 -1.05 10.718013 19.396275 61.775251999999995 0 0 0
619 0 8 -1.05 8.598012999999998 19.322604 63.89525199999999 0 0 0
618 2 7 1.575 8.561177999999998 17.23944 63.858416999999996 0 0 0
622 2 7 1.575 10.681178 19.35944 63.858416999999996 0 0 0
1077 0 8 -1.05 8.598012999999998 21.516275 61.701581999999995 0 0 0
1078 0 8 -1.05 10.644341999999998 23.562605 61.701581999999995 0 0 0
1075 0 8 -1.05 8.524343 23.636275 63.82158199999999 0 0 0
1079 2 7 1.575 10.681178 21.47944 61.73841699999999 0 0 0
1076 2 6 1.05 8.561177999999998 23.59944 61.73841699999999 0 0 0
1081 1 7 1.575 11.741178 24.65944 62.798417 0 0 0
94 0 8 -1.05 4.284343 12.962605 70.25525199999998 0 0 0
65 0 8 -1.05 0.04434299999999958 12.962605 66.01525199999999 0 0 0
532 0 8 -1.05 0.11801299999999859 13.036275 70.18158199999998 0 0 0