ITEM: TIMESTEP
0
ITEM: NUMBER OF ATOMS
468
ITEM: BOX BOUNDS pp pp ff
0.0000000000000000e+00 2.5440000000000001e+01
0.0000000000000000e+00 2.5440000000000001e+01
3.5929417000000001e+01 1.0026741699999999e+02
ITEM: ATOMS id type c_coord
5 7 1
10 6 1
14 6 1
17 7 1
26 7 0
28 6 5
30 7 0
33 6 0
36 6 0
38 7 4
40 6 0
43 7 0
45 7 4
47 7 0
49 7 5
51 7 0
54 7 0
57 7 0
59 7 4
61 7 0
62 7 4
63 7 0
66 7 0
67 7 4
68 6 0
71 6 0
74 7 0
76 7 4
78 7 4
80 7 0
85 7 0
86 7 4
87 7 0
92 7 0
93 7 4
95 7 4
97 7 0
98 7 0
103 6 0
104 7 0
105 7 5
108 7 4
113 7 4
116 6 0
117 7 0
122 7 0
123 6 0
124 7 5
130 7 1
136 7 1
137 7 1
143 6 1
153 7 1
158 6 1
162 6 1
165 7 1
174 7 0
176 6 5
178 7 0
181 6 0
184 6 0
186 7 4
188 6 0
191 7 0
193 7 4
195 7 0
197 7 5
199 7 0
202 7 0
205 7 0
207 7 4
209 7 0
210 7 4
211 7 0
214 7 0
215 7 4
216 6 0
219 6 0
222 7 0
224 7 4
226 7 4
228 7 0
233 7 0
234 7 4
235 7 0
240 7 0
241 7 4
243 7 4
245 7 0
246 7 0
251 6 0
252 7 0
253 7 5
256 7 4
261 7 4
264 6 0
265 7 0
270 7 0
271 6 0
272 7 5
278 7 1
284 7 1
285 7 1
291 6 1
301 7 1
306 6 1
310 6 1
313 7 1
322 7 0
324 6 5
326 7 0
329 6 0
332 6 0
334 7 4
336 6 0
339 7 0
341 7 4
343 7 0
345 7 5
347 7 0
350 7 0
353 7 0
355 7 4
357 7 0
358 7 4
359 7 0
362 7 0
363 7 4
364 6 0
367 6 0
370 7 0
372 7 4
374 7 4
376 7 0
381 7 0
382 7 4
383 7 0
388 7 0
389 7 4
391 7 4
393 7 0
394 7 0
399 6 0
400 7 0
401 7 5
404 7 4
409 7 4
412 6 0
413 7 0
418 7 0
419 6 0
420 7 5
426 7 1
432 7 1
433 7 1
439 6 1
449 7 1
454 6 1
458 6 1
461 7 1
470 7 0
472 6 5
474 7 0
477 6 0
480 6 0
482 7 4
484 6 0
487 7 0
489 7 4
491 7 0
493 7 5
495 7 0
498 7 0
501 7 0
503 7 4
505 7 0
506 7 4
507 7 0
510 7 0
511 7 4
512 6 0
515 6 0
518 7 0
520 7 4
522 7 4
524 7 0
529 7 0
530 7 4
531 7 0
536 7 0
537 7 4
539 7 4
541 7 0
542 7 0
547 6 0
548 7 0
549 7 5
552 7 4
557 7 4
560 6 0
561 7 0
566 7 0
567 6 0
568 7 5
574 7 1
580 7 1
581 7 1
587 6 1
597 7 1
602 6 1
606 6 1
609 7 1
618 7 0
620 6 5
622 7 0
625 6 0
628 6 0
630 7 4
632 6 0
635 7 0
637 7 4
639 7 0
641 7 5
643 7 0
646 7 0
649 7 0
651 7 4
653 7 0
654 7 4
655 7 0
658 7 0
659 7 4
660 6 0
663 6 0
666 7 0
668 7 4
670 7 4
672 7 0
677 7 0
678 7 4
679 7 0
684 7 0
685 7 4
687 7 4
689 7 0
690 7 0
695 6 0
696 7 0
697 7 5
700 7 4
705 7 4
708 6 0
709 7 0
714 7 0
715 6 0
716 7 5
722 7 1
728 7 1
729 7 1
735 6 1
745 7 1
750 6 1
754 6 1
757 7 1
766 7 0
768 6 5
770 7 0
773 6 0
776 6 0
778 7 4
780 6 0
783 7 0
785 7 4
787 7 0
789 7 5
791 7 0
794 7 0
797 7 0
799 7 4
801 7 0
802 7 4
803 7 0
806 7 0
807 7 4
808 6 0
811 6 0
814 7 0
816 7 4
818 7 4
820 7 0
825 7 0
826 7 4
827 7 0
832 7 0
833 7 4
835 7 4
837 7 0
838 7 0
843 6 0
844 7 0
845 7 5
848 7 4
853 7 4
856 6 0
857 7 0
862 7 0
863 6 0
864 7 5
870 7 1
876 7 1
877 7 1
883 6 1
893 7 1
898 6 1
902 6 1
905 7 1
914 7 0
916 6 5
918 7 0
921 6 0
924 6 0
926 7 4
928 6 0
931 7 0
933 7 4
935 7 0
937 7 5
939 7 0
942 7 0
945 7 0
947 7 4
949 7 0
950 7 4
951 7 0
954 7 0
955 7 4
956 6 0
959 6 0
962 7 0
964 7 4
966 7 4
968 7 0
973 7 0
974 7 4
975 7 0
980 7 0
981 7 4
983 7 4
985 7 0
986 7 0
991 6 0
992 7 0
993 7 5
996 7 4
1001 7 4
1004 6 0
1005 7 0
1010 7 0
1011 6 0
1012 7 5
1018 7 1
1024 7 1
1025 7 1
1031 6 1
1041 7 1
1046 6 1
1050 6 1
1053 7 1
1062 7 0
1064 6 5
1066 7 0
1069 6 0
1072 6 0
1074 7 4
1076 6 0
1079 7 0
1081 7 4
1083 7 0
1085 7 5
1087 7 0
1090 7 0
1093 7 0
1095 7 4
1097 7 0
1098 7 4
1099 7 0
1102 7 0
1103 7 4
1104 6 0
1107 6 0
1110 7 0
1112 7 4
1114 7 4
1116 7 0
1121 7 0
1122 7 4
1123 7 0
1128 7 0
1129 7 4
1131 7 4
1133 7 0
1134 7 0
1139 6 0
1140 7 0
1141 7 5
1144 7 4
1149 7 4
1152 6 0
1153 7 0
1158 7 0
1159 6 0
1160 7 5
1166 7 1
1172 7 1
1173 7 1
1179 6 1
1189 7 1
1194 6 1
1198 6 1
1201 7 1
1210 7 0
1212 6 5
1214 7 0
1217 6 0
1220 6 0
1222 7 4
1224 6 0
1227 7 0
1229 7 4
1231 7 0
1233 7 5
1235 7 0
1238 7 0
1241 7 0
1243 7 4
1245 7 0
1246 7 4
1247 7 0
1250 7 0
1251 7 4
1252 6 0
1255 6 0
1258 7 0
1260 7 4
1262 7 4
1264 7 0
1269 7 0
1270 7 4
1271 7 0
1276 7 0
1277 7 4
1279 7 4
1281 7 0
1282 7 0
1287 6 0
1288 7 0
1289 7 5
1292 7 4
1297 7 4
1300 6 0
1301 7 0
1306 7 0
1307 6 0
1308 7 5
1314 7 1
1320 7 1
1321 7 1
1327 6 1
