LAMMPS (29 Sep 2021 - Update 2)
variable  rand equal round(random(0,1e7,452345))
variable layer index 17

variable temp index 500000 450000 405000 364500 328050 295245 265720 239148 215233 193709 174338 156904 141213 127091 114381 102942 92647 83382 75043 67538 60784 54705 49234 44310 39879 35891 32301 29070 26163 23546 21191 19071 17163 15446 13901 12510 11259 10133 9119 8207 7386 6647 5982 5383 4844 4359 3923 3530 3177 2859 2573 2315 2083 1874 1686 1517 1365 1228 1105 994 894 804 723 650 585 526 473 425 382 343 308 277 249 224 201 180 162 145 130 117 105 94 84 75 67 60 54 48 43 38 34 30 27 24 21 18 16 14 12 10 9 8 7 6 5 4 3 2 1

variable type string tet_full

include settings.lmp
units              real
atom_style         full
timestep	   0.5
boundary	   p p f

pair_style         lj/cut/coul/long 12.0
bond_style         harmonic
angle_style        harmonic
dihedral_style     fourier
improper_style     cvff
kspace_style       pppm 1.0e-6
kspace_modify      slab 3.0

pair_modify        mix arithmetic
special_bonds      amber
neighbor           2.0 bin
neigh_modify       every 1 delay 0 check yes

read_data 001-dbt_3x3_${layer}L_fa_${type}_init.data
read_data 001-dbt_3x3_17L_fa_${type}_init.data
read_data 001-dbt_3x3_17L_fa_tet_full_init.data
Reading data file ...
  orthogonal box = (0.0000000 0.0000000 35.929417) to (25.440000 25.440000 100.26742)
  2 by 2 by 5 MPI processor grid
  reading atoms ...
  1332 atoms
  reading velocities ...
  1332 velocities
  scanning bonds ...
  3 = max bonds/atom
  scanning angles ...
  3 = max angles/atom
  scanning impropers ...
  1 = max impropers/atom
  reading bonds ...
  180 bonds
  reading angles ...
  324 angles
  reading impropers ...
  36 impropers
Finding 1-2 1-3 1-4 neighbors ...
  special bond factors lj:    0        0        0.5     
  special bond factors coul:  0        0        0.8333333333333334
     3 = max # of 1-2 neighbors
     2 = max # of 1-3 neighbors
     2 = max # of 1-4 neighbors
     3 = max # of special neighbors
  special bonds CPU = 0.002 seconds
  read_data CPU = 0.020 seconds

include ff_formic_acid_fe304.param
#####################-----formic_acid-----######################################

mass  1   12.011   # Sp2 C carbonyl group
mass  2    1.008   # H bonded to non-sp3 carbon with 2 electrwd. group
mass  3   15.9994  # Oxygen with one connected atom
mass  4   15.9994  # Oxygen in hydroxyl group
mass  5    1.008   # Hydroxyl group

pair_coeff  1  1   0.0988  3.31521230994  # c
pair_coeff  2  2   0.0161  2.44729877873  # h5
pair_coeff  3  3   0.1463  3.04812087425  # o
pair_coeff  4  4   0.0930  3.24287133403  # oh
pair_coeff  5  5   0.0047  0.537924646013 # ho

bond_coeff  1  361.80  1.105  # c-h5
bond_coeff  2  652.57  1.218  # c=o
bond_coeff  3  383.13  1.351  # c-oh
bond_coeff  4  563.51  0.973  # o-h

angle_coeff  1   51.617  106.550  # c-oh-ho
angle_coeff  2   65.930  123.650  # h5-c=o
angle_coeff  3   65.262  109.490  # h5-c-oh
angle_coeff  4  115.745  122.100  # o=c-oh

dihedral_coeff  1  1  2.3  2  180.0               # h5-c-oh-ho
dihedral_coeff  2  2  2.3  2  180.0  1.9  1  0.0  # o=c-oh-ho

                              #  h5
                              #  |
improper_coeff  1  10.5 -1 2  #  c
                              # / \
                              # o  oh

#####################-----formate-----###########################################

angle_coeff  5   118.817 130.250  # o-c-o

                              #  h5
                              #  |
improper_coeff  2  10.5 -1 2  #  c
                              # / \
                              # o  o

#####################-----magnetite-----#########################################

mass  6   55.845   # Iron(II)
mass  7   55.845   # Iron(III)
mass  8   15.9994  # Bridging oxygen
mass  9   15.9994  # Hydroxyl oxygen
mass  10   1.008   # Hydroxyl hydrogen

pair_coeff  6  6   9.0298e-07  4.90620  # fe2
pair_coeff  7  7   9.0298e-07  4.90620  # fe3
pair_coeff  8  8   0.1554      3.16554  # ob
pair_coeff  9  9   0.1554      3.16554  # oh
pair_coeff  10 10  0.0         0.0      # ho

bond_coeff  5  554.1349  1.0   # oh-ho
bond_coeff  6    0.0     2.08  # fe-oh (dummy bond)

angle_coeff  6   30.0  109.470  # fe-oh-ho

##################################################################################

dump dmp all custom 10000 swap_${layer}L_${type}.lammpstrj id mol type q x y z
dump dmp all custom 10000 swap_17L_${type}.lammpstrj id mol type q x y z
dump dmp all custom 10000 swap_17L_tet_full.lammpstrj id mol type q x y z
dump_modify dmp sort id

group fe type 7 6
468 atoms in group fe

compute coord fe coord/atom cutoff 2.0
dump coord fe custom 1 fe_${layer}L.coord id type c_coord
dump coord fe custom 1 fe_17L.coord id type c_coord
dump_modify coord sort id
run 0
WARNING: No fixes defined, atoms won't move (../verlet.cpp:55)
PPPM initialization ...
  using 12-bit tables for long-range coulomb (../kspace.cpp:340)
  G vector (1/distance) = 0.28992484
  grid = 40 40 160
  stencil order = 5
  estimated absolute RMS force accuracy = 0.0003575219
  estimated relative force accuracy = 1.0766666e-06
  using double precision KISS FFT
  3d grid and FFT values/proc = 100920 46800
Neighbor list info ...
  update every 1 steps, delay 0 steps, check yes
  max neighbors/atom: 2000, page size: 100000
  master list distance cutoff = 14
  ghost atom cutoff = 14
  binsize = 7, bins = 4 4 10
  2 neighbor lists, perpetual/occasional/extra = 1 1 0
  (1) pair lj/cut/coul/long, perpetual
      attributes: half, newton on
      pair build: half/bin/newton
      stencil: half/bin/3d
      bin: standard
  (2) compute coord/atom, occasional
      attributes: full, newton on
      pair build: full/bin
      stencil: full/bin/3d
      bin: standard
Per MPI rank memory allocation (min/avg/max) = 12.94 | 14.74 | 19.36 Mbytes
Step Temp E_pair E_mol TotEng Press 
       0            0    -201641.1    14706.482   -186934.62   -49065.281 
Loop time of 3.12743e-05 on 20 procs for 0 steps with 1332 atoms

48.3% CPU use with 20 MPI tasks x no OpenMP threads

MPI task timing breakdown:
Section |  min time  |  avg time  |  max time  |%varavg| %total
---------------------------------------------------------------
Pair    | 0          | 0          | 0          |   0.0 |  0.00
Bond    | 0          | 0          | 0          |   0.0 |  0.00
Kspace  | 0          | 0          | 0          |   0.0 |  0.00
Neigh   | 0          | 0          | 0          |   0.0 |  0.00
Comm    | 0          | 0          | 0          |   0.0 |  0.00
Output  | 0          | 0          | 0          |   0.0 |  0.00
Modify  | 0          | 0          | 0          |   0.0 |  0.00
Other   |            | 3.127e-05  |            |       |100.00

Nlocal:        66.6000 ave         216 max           0 min
Histogram: 8 0 8 0 0 0 0 0 0 4
Nghost:        2084.60 ave        3163 max         856 min
Histogram: 8 0 0 0 0 0 0 0 8 4
Neighs:        27314.5 ave      101477 max           0 min
Histogram: 8 4 4 0 0 0 0 0 0 4
FullNghs:      54629.1 ave      197696 max           0 min
Histogram: 8 8 0 0 0 0 0 0 0 4

Total # of neighbors = 1092582
Ave neighs/atom = 820.25676
Ave special neighs/atom = 0.43243243
Neighbor list builds = 0
Dangerous builds = 0
variable fet atom c_coord==4
group fet variable fet
108 atoms in group fet
group feo subtract fe fet
360 atoms in group feo
undump coord

variable nfeo equal count(feo)
variable nsteps equal round((${nfeo}*${nfeo})/4)
variable nsteps equal round((360*${nfeo})/4)
variable nsteps equal round((360*360)/4)
variable nsteps_initial equal ${nfeo}*${nfeo}
variable nsteps_initial equal 360*${nfeo}
variable nsteps_initial equal 360*360

set group all mol 0
Setting atom values ...
  1332 settings made for mol
set group fet mol 1
Setting atom values ...
  108 settings made for mol
set group feo mol 2
Setting atom values ...
  360 settings made for mol

variable fet3 atom "gmask(fet) && q == 1.575"
group fet3 dynamic fe var fet3 every 100
dynamic group fet3 defined
variable rfet3 equal count(fet3)/count(fet)

variable feo3 atom "gmask(feo) && q == 1.575"
group feo3 dynamic fe var feo3 every 100
dynamic group feo3 defined
variable rfeo3 equal count(feo3)/count(feo)

variable cnum equal 109

# Initial mc to remove any residuals
fix  swp feo atom/swap 1 1 ${rand} 10000 ke no types 6 7
fix  swp feo atom/swap 1 1 855824 10000 ke no types 6 7
thermo 1000
thermo_style custom step pe f_swp[1] f_swp[2] v_rfet3 v_rfeo3
run ${nsteps_initial}
run 129600
PPPM initialization ...
  using 12-bit tables for long-range coulomb (../kspace.cpp:340)
  G vector (1/distance) = 0.28992484
  grid = 40 40 160
  stencil order = 5
  estimated absolute RMS force accuracy = 0.0003575219
  estimated relative force accuracy = 1.0766666e-06
  using double precision KISS FFT
  3d grid and FFT values/proc = 100920 46800
Per MPI rank memory allocation (min/avg/max) = 11.68 | 13.48 | 18.09 Mbytes
Step PotEng f_swp[1] f_swp[2] v_rfet3 v_rfeo3 
       0   -186934.62            0            0            1          0.7 
    1000      -195101         1000          358            1          0.7 
    2000   -195095.32         2000          674            1          0.7 
    3000   -195362.57         3000          985            1          0.7 
    4000    -195237.2         4000         1295            1          0.7 
    5000   -195042.49         5000         1603            1          0.7 
    6000   -195094.17         6000         1921            1          0.7 
    7000   -195040.18         7000         2253            1          0.7 
    8000   -195242.29         8000         2581            1          0.7 
    9000   -195266.21         9000         2907            1          0.7 
   10000   -195281.47        10000         3253            1          0.7 
   11000   -195306.19        11000         3575            1          0.7 
   12000   -195046.21        12000         3863            1          0.7 
   13000   -195174.72        13000         4190            1          0.7 
   14000   -195195.37        14000         4537            1          0.7 
   15000    -194998.4        15000         4864            1          0.7 
   16000   -194935.03        16000         5167            1          0.7 
   17000   -195087.63        17000         5495            1          0.7 
   18000   -195151.42        18000         5822            1          0.7 
   19000   -195250.75        19000         6102            1          0.7 
   20000   -195099.73        20000         6435            1          0.7 
   21000   -195167.18        21000         6767            1          0.7 
   22000   -195196.89        22000         7094            1          0.7 
   23000    -195071.8        23000         7424            1          0.7 
   24000   -195095.25        24000         7760            1          0.7 
   25000   -195089.37        25000         8098            1          0.7 
   26000    -195177.3        26000         8427            1          0.7 
   27000   -195141.33        27000         8736            1          0.7 
   28000   -195129.82        28000         9063            1          0.7 
   29000   -195135.61        29000         9380            1          0.7 
   30000   -194999.51        30000         9715            1          0.7 
   31000   -195172.43        31000        10027            1          0.7 
   32000   -195294.22        32000        10338            1          0.7 
   33000   -195142.96        33000        10660            1          0.7 
   34000   -195032.41        34000        10998            1          0.7 
   35000   -195077.69        35000        11336            1          0.7 
   36000   -195008.41        36000        11683            1          0.7 
   37000   -195174.17        37000        11994            1          0.7 
   38000   -195161.42        38000        12308            1          0.7 
   39000   -195126.33        39000        12639            1          0.7 
   40000   -195252.91        40000        12984            1          0.7 
   41000   -195262.41        41000        13341            1          0.7 
   42000   -195186.21        42000        13657            1          0.7 
   43000   -195170.36        43000        13956            1          0.7 
   44000   -195111.57        44000        14276            1          0.7 
   45000   -195230.13        45000        14613            1          0.7 
   46000   -195103.71        46000        14923            1          0.7 
   47000   -195102.44        47000        15264            1          0.7 
   48000   -195047.75        48000        15601            1          0.7 
   49000   -195109.61        49000        15919            1          0.7 
   50000   -195038.38        50000        16230            1          0.7 
   51000   -195241.34        51000        16551            1          0.7 
   52000   -195318.55        52000        16887            1          0.7 
   53000   -195160.11        53000        17214            1          0.7 
   54000   -195096.03        54000        17515            1          0.7 
   55000   -195124.54        55000        17839            1          0.7 
   56000   -195017.79        56000        18130            1          0.7 
   57000   -195015.64        57000        18457            1          0.7 
   58000   -195120.28        58000        18791            1          0.7 
   59000   -194848.05        59000        19095            1          0.7 
   60000   -195091.28        60000        19413            1          0.7 
   61000   -195025.25        61000        19688            1          0.7 
   62000   -195157.11        62000        19992            1          0.7 
   63000   -195271.23        63000        20302            1          0.7 
   64000   -195258.86        64000        20612            1          0.7 
   65000   -195338.03        65000        20914            1          0.7 
   66000   -195217.02        66000        21268            1          0.7 
   67000   -195135.83        67000        21582            1          0.7 
   68000    -195227.1        68000        21910            1          0.7 
   69000   -195148.47        69000        22224            1          0.7 
   70000   -195228.65        70000        22560            1          0.7 
   71000   -195019.68        71000        22878            1          0.7 
   72000   -195028.29        72000        23182            1          0.7 
   73000   -195258.72        73000        23491            1          0.7 
   74000   -195247.61        74000        23807            1          0.7 
   75000   -195202.78        75000        24147            1          0.7 
   76000   -195150.97        76000        24443            1          0.7 
   77000   -195192.81        77000        24766            1          0.7 
   78000    -195259.9        78000        25099            1          0.7 
   79000   -195187.74        79000        25414            1          0.7 
   80000   -195229.34        80000        25749            1          0.7 
   81000   -195313.02        81000        26071            1          0.7 
   82000   -195143.95        82000        26386            1          0.7 
   83000   -195048.32        83000        26700            1          0.7 
   84000    -195305.1        84000        27002            1          0.7 
   85000   -195084.53        85000        27312            1          0.7 
   86000   -195132.53        86000        27596            1          0.7 
   87000   -195053.83        87000        27888            1          0.7 
   88000   -195222.75        88000        28213            1          0.7 
   89000   -195331.68        89000        28496            1          0.7 
   90000   -195065.03        90000        28822            1          0.7 
   91000   -195211.21        91000        29127            1          0.7 
   92000   -195134.03        92000        29475            1          0.7 
   93000   -195063.73        93000        29796            1          0.7 
   94000   -195152.73        94000        30146            1          0.7 
   95000   -195203.27        95000        30469            1          0.7 
   96000    -195173.4        96000        30753            1          0.7 
   97000   -195322.35        97000        31057            1          0.7 
   98000   -195364.34        98000        31391            1          0.7 
   99000   -195328.19        99000        31711            1          0.7 
  100000   -195252.61       100000        32006            1          0.7 
  101000   -195227.26       101000        32326            1          0.7 
  102000   -195040.78       102000        32638            1          0.7 
  103000   -195280.42       103000        32960            1          0.7 
  104000   -195093.64       104000        33269            1          0.7 
  105000   -195021.86       105000        33598            1          0.7 
  106000    -195100.3       106000        33912            1          0.7 
  107000   -195052.67       107000        34194            1          0.7 
  108000    -195031.9       108000        34528            1          0.7 
  109000   -195060.03       109000        34873            1          0.7 
  110000   -195232.74       110000        35203            1          0.7 
  111000   -195110.61       111000        35526            1          0.7 
  112000   -195130.16       112000        35825            1          0.7 
  113000   -195090.96       113000        36128            1          0.7 
  114000   -195211.73       114000        36469            1          0.7 
  115000   -195155.35       115000        36749            1          0.7 
  116000   -195104.19       116000        37071            1          0.7 
  117000   -195359.42       117000        37411            1          0.7 
  118000   -195290.79       118000        37707            1          0.7 
  119000   -195280.44       119000        38049            1          0.7 
  120000    -195004.3       120000        38391            1          0.7 
  121000   -195062.09       121000        38724            1          0.7 
  122000   -195114.63       122000        39062            1          0.7 
  123000   -195074.87       123000        39411            1          0.7 
  124000    -195336.9       124000        39704            1          0.7 
  125000   -195190.12       125000        40036            1          0.7 
  126000   -195359.07       126000        40333            1          0.7 
  127000   -195102.39       127000        40646            1          0.7 
  128000   -195279.35       128000        40976            1          0.7 
  129000   -195182.99       129000        41313            1          0.7 
  129600   -194796.54       129600        41494            1          0.7 
Loop time of 4983.89 on 20 procs for 129600 steps with 1332 atoms

Performance: 1.123 ns/day, 21.364 hours/ns, 26.004 timesteps/s
99.4% CPU use with 20 MPI tasks x no OpenMP threads

MPI task timing breakdown:
Section |  min time  |  avg time  |  max time  |%varavg| %total
---------------------------------------------------------------
Pair    | 0.073117   | 62.49      | 223.4      |1035.6 |  1.25
Bond    | 0.079615   | 0.38714    | 0.93024    |  56.0 |  0.01
Kspace  | 770.85     | 932.04     | 995.6      | 269.3 | 18.70
Neigh   | 256.71     | 257.76     | 258.95     |   4.2 |  5.17
Comm    | 46.995     | 55.119     | 63.354     |  83.2 |  1.11
Output  | 0.014406   | 0.022392   | 0.033008   |   4.0 |  0.00
Modify  | 3666.6     | 3674.6     | 3681.6     |   9.9 | 73.73
Other   |            | 1.505      |            |       |  0.03

Nlocal:        66.6000 ave         216 max           0 min
Histogram: 8 0 8 0 0 0 0 0 0 4
Nghost:        2084.60 ave        3163 max         856 min
Histogram: 8 0 0 0 0 0 0 0 8 4
Neighs:        27314.5 ave      101477 max           0 min
Histogram: 8 4 4 0 0 0 0 0 0 4
FullNghs:      54629.1 ave      197696 max           0 min
Histogram: 8 8 0 0 0 0 0 0 0 4

Total # of neighbors = 1092582
Ave neighs/atom = 820.25676
Ave special neighs/atom = 0.43243243
Neighbor list builds = 259200
Dangerous builds = 0
unfix swp

thermo_style custom step temp pe
write_data 001-dbt_3x3_${layer}L_fa_${type}_rand.data
write_data 001-dbt_3x3_17L_fa_${type}_rand.data
write_data 001-dbt_3x3_17L_fa_tet_full_rand.data
System init for write_data ...
PPPM initialization ...
  using 12-bit tables for long-range coulomb (../kspace.cpp:340)
  G vector (1/distance) = 0.28992484
  grid = 40 40 160
  stencil order = 5
  estimated absolute RMS force accuracy = 0.0003575219
  estimated relative force accuracy = 1.0766666e-06
  using double precision KISS FFT
  3d grid and FFT values/proc = 100920 46800

variable top_immobile equal bound(all,zmax)
variable top_immobile equal ${top_immobile}-10
variable top_immobile equal 80.267417-10

variable bottom_immobile equal bound(all,zmin)
variable bottom_immobile equal ${bottom_immobile}+10
variable bottom_immobile equal 55.929417+10

region top_immobile block INF INF INF INF ${top_immobile} INF side in units box
region top_immobile block INF INF INF INF 70.267417 INF side in units box
region bottom_immobile block INF INF INF INF INF ${bottom_immobile} side in units box
region bottom_immobile block INF INF INF INF INF 65.929417 side in units box

group top_immobile region top_immobile
486 atoms in group top_immobile
group bottom_immobile region bottom_immobile
486 atoms in group bottom_immobile

group ho type 9 10
144 atoms in group ho
group fa type 1 2 3 4 5
144 atoms in group fa

# Minimize O-H bond
group immobile_1 type 1 2 3 6 7 8
1188 atoms in group immobile_1

group top_ho intersect top_immobile ho
72 atoms in group top_ho
group bottom_ho intersect bottom_immobile ho
72 atoms in group bottom_ho

group top_fa intersect top_immobile fa
72 atoms in group top_fa
group bottom_fa intersect bottom_immobile fa
72 atoms in group bottom_fa

group immo_top_fa subtract all top_fa
1260 atoms in group immo_top_fa
group immo_bottom_fa subtract all bottom_fa
1260 atoms in group immo_bottom_fa

group immo_top_ho subtract all top_ho
1260 atoms in group immo_top_ho
group immo_bottom_ho subtract all bottom_ho
1260 atoms in group immo_bottom_ho

label minimize_temp

  variable ftemp equal v_temp

  # Minimize top formate
  fix freeze immo_top_fa setforce 0.0 0.0 0.0
  minimize 1.0e-6 1.0e-9 1000 10000
PPPM initialization ...
  using 12-bit tables for long-range coulomb (../kspace.cpp:340)
  G vector (1/distance) = 0.28992484
  grid = 40 40 160
  stencil order = 5
  estimated absolute RMS force accuracy = 0.0003575219
  estimated relative force accuracy = 1.0766666e-06
  using double precision KISS FFT
  3d grid and FFT values/proc = 100920 46800
Per MPI rank memory allocation (min/avg/max) = 12.80 | 14.60 | 19.22 Mbytes
Step Temp PotEng 
  129600            0   -194796.54 
  129617            0   -199253.47 
Loop time of 0.281346 on 20 procs for 17 steps with 1332 atoms

99.4% CPU use with 20 MPI tasks x no OpenMP threads

Minimization stats:
  Stopping criterion = energy tolerance
  Energy initial, next-to-last, final = 
     -194796.544039457  -199253.320003262  -199253.470880226
  Force two-norm initial, final = 3925.4033 17.098726
  Force max component initial, final = 434.28655 5.6437287
  Final line search alpha, max atom move = 0.011745509 0.066288466
  Iterations, force evaluations = 17 31

MPI task timing breakdown:
Section |  min time  |  avg time  |  max time  |%varavg| %total
---------------------------------------------------------------
Pair    | 1.9997e-05 | 0.023014   | 0.082061   |  19.9 |  8.18
Bond    | 3.5837e-05 | 0.00012617 | 0.00029762 |   0.0 |  0.04
Kspace  | 0.18999    | 0.24899    | 0.27252    |   6.1 | 88.50
Neigh   | 0          | 0          | 0          |   0.0 |  0.00
Comm    | 0.0035519  | 0.0056436  | 0.0076701  |   2.0 |  2.01
Output  | 0          | 0          | 0          |   0.0 |  0.00
Modify  | 2.7097e-05 | 4.4149e-05 | 6.4265e-05 |   0.0 |  0.02
Other   |            | 0.003525   |            |       |  1.25

Nlocal:        66.6000 ave         216 max           0 min
Histogram: 8 0 8 0 0 0 0 0 0 4
Nghost:        2084.60 ave        3163 max         856 min
Histogram: 8 0 0 0 0 0 0 0 8 4
Neighs:        27314.5 ave      101477 max           0 min
Histogram: 8 4 4 0 0 0 0 0 0 4
FullNghs:      54629.1 ave      197696 max           0 min
Histogram: 8 8 0 0 0 0 0 0 0 4

Total # of neighbors = 1092582
Ave neighs/atom = 820.25676
Ave special neighs/atom = 0.43243243
Neighbor list builds = 0
Dangerous builds = 0
  min_modify integrator eulerexplicit tmax 10.0 tmin 0.0 delaystep 5           dtgrow 1.1 dtshrink 0.5 alpha0 0.1 alphashrink 0.99           vdfmax 100000 halfstepback no initialdelay no
  unfix freeze

  # Minimize top ho
  fix freeze immo_top_ho setforce 0.0 0.0 0.0
  minimize 1.0e-6 1.0e-9 1000 10000
PPPM initialization ...
  using 12-bit tables for long-range coulomb (../kspace.cpp:340)
  G vector (1/distance) = 0.28992484
  grid = 40 40 160
  stencil order = 5
  estimated absolute RMS force accuracy = 0.0003575219
  estimated relative force accuracy = 1.0766666e-06
  using double precision KISS FFT
  3d grid and FFT values/proc = 100920 46800
Per MPI rank memory allocation (min/avg/max) = 12.80 | 14.60 | 19.22 Mbytes
Step Temp PotEng 
  129617            0   -199253.47 
  129633            0   -203799.31 
Loop time of 0.222153 on 20 procs for 16 steps with 1332 atoms

99.4% CPU use with 20 MPI tasks x no OpenMP threads

Minimization stats:
  Stopping criterion = energy tolerance
  Energy initial, next-to-last, final = 
     -199253.470880226  -203799.142252229  -203799.309622353
  Force two-norm initial, final = 3616.9625 15.194022
  Force max component initial, final = 382.25185 3.8646865
  Final line search alpha, max atom move = 0.025988957 0.10043917
  Iterations, force evaluations = 16 24

MPI task timing breakdown:
Section |  min time  |  avg time  |  max time  |%varavg| %total
---------------------------------------------------------------
Pair    | 1.7906e-05 | 0.017982   | 0.063996   |  17.6 |  8.09
Bond    | 2.9947e-05 | 0.00010129 | 0.00022967 |   0.0 |  0.05
Kspace  | 0.14857    | 0.19458    | 0.21292    |   5.3 | 87.59
Neigh   | 0.0020052  | 0.0020164  | 0.0020327  |   0.0 |  0.91
Comm    | 0.0030033  | 0.0046507  | 0.0062655  |   1.8 |  2.09
Output  | 0          | 0          | 0          |   0.0 |  0.00
Modify  | 2.2921e-05 | 3.507e-05  | 5.1402e-05 |   0.0 |  0.02
Other   |            | 0.002791   |            |       |  1.26

Nlocal:        66.6000 ave         216 max           0 min
Histogram: 8 0 8 0 0 0 0 0 0 4
Nghost:        2084.60 ave        3162 max         861 min
Histogram: 8 0 0 0 0 0 0 0 8 4
Neighs:        27294.3 ave      101304 max           0 min
Histogram: 9 3 4 0 0 0 0 0 0 4
FullNghs:      54629.1 ave      197696 max           0 min
Histogram: 8 8 0 0 0 0 0 0 0 4

Total # of neighbors = 1092582
Ave neighs/atom = 820.25676
Ave special neighs/atom = 0.43243243
Neighbor list builds = 1
Dangerous builds = 0
  min_modify integrator eulerexplicit tmax 10.0 tmin 0.0 delaystep 5           dtgrow 1.1 dtshrink 0.5 alpha0 0.1 alphashrink 0.99           vdfmax 100000 halfstepback no initialdelay no
  unfix freeze

  # Minimize bottom formate
  fix freeze immo_bottom_fa setforce 0.0 0.0 0.0
  minimize 1.0e-6 1.0e-9 1000 10000
PPPM initialization ...
  using 12-bit tables for long-range coulomb (../kspace.cpp:340)
  G vector (1/distance) = 0.28992484
  grid = 40 40 160
  stencil order = 5
  estimated absolute RMS force accuracy = 0.0003575219
  estimated relative force accuracy = 1.0766666e-06
  using double precision KISS FFT
  3d grid and FFT values/proc = 100920 46800
Per MPI rank memory allocation (min/avg/max) = 12.80 | 14.60 | 19.22 Mbytes
Step Temp PotEng 
  129633            0   -203799.31 
  129654            0   -208284.22 
Loop time of 0.342864 on 20 procs for 21 steps with 1332 atoms

99.3% CPU use with 20 MPI tasks x no OpenMP threads

Minimization stats:
  Stopping criterion = energy tolerance
  Energy initial, next-to-last, final = 
     -203799.309622353  -208284.158947468  -208284.222268634
  Force two-norm initial, final = 3924.3937 10.400097
  Force max component initial, final = 429.03411 2.4496080
  Final line search alpha, max atom move = 0.011843463 0.029011840
  Iterations, force evaluations = 21 38

MPI task timing breakdown:
Section |  min time  |  avg time  |  max time  |%varavg| %total
---------------------------------------------------------------
Pair    | 2.4851e-05 | 0.028173   | 0.10011    |  22.0 |  8.22
Bond    | 4.5095e-05 | 0.00016135 | 0.00036355 |   0.0 |  0.05
Kspace  | 0.23184    | 0.30371    | 0.33248    |   6.7 | 88.58
Neigh   | 0          | 0          | 0          |   0.0 |  0.00
Comm    | 0.0042694  | 0.0068146  | 0.009272   |   2.3 |  1.99
Output  | 0          | 0          | 0          |   0.0 |  0.00
Modify  | 3.8028e-05 | 5.3477e-05 | 7.4326e-05 |   0.0 |  0.02
Other   |            | 0.00395    |            |       |  1.15

Nlocal:        66.6000 ave         216 max           0 min
Histogram: 8 0 8 0 0 0 0 0 0 4
Nghost:        2084.60 ave        3162 max         861 min
Histogram: 8 0 0 0 0 0 0 0 8 4
Neighs:        27297.4 ave      101480 max           0 min
Histogram: 8 4 4 0 0 0 0 0 0 4
FullNghs:      54629.1 ave      197696 max           0 min
Histogram: 8 8 0 0 0 0 0 0 0 4

Total # of neighbors = 1092582
Ave neighs/atom = 820.25676
Ave special neighs/atom = 0.43243243
Neighbor list builds = 0
Dangerous builds = 0
  min_modify integrator eulerexplicit tmax 10.0 tmin 0.0 delaystep 5           dtgrow 1.1 dtshrink 0.5 alpha0 0.1 alphashrink 0.99           vdfmax 100000 halfstepback no initialdelay no
  unfix freeze

  # Minimize bottom ho
  fix freeze immo_bottom_ho setforce 0.0 0.0 0.0
  minimize 1.0e-6 1.0e-9 1000 10000
PPPM initialization ...
  using 12-bit tables for long-range coulomb (../kspace.cpp:340)
  G vector (1/distance) = 0.28992484
  grid = 40 40 160
  stencil order = 5
  estimated absolute RMS force accuracy = 0.0003575219
  estimated relative force accuracy = 1.0766666e-06
  using double precision KISS FFT
  3d grid and FFT values/proc = 100920 46800
Per MPI rank memory allocation (min/avg/max) = 12.80 | 14.60 | 19.22 Mbytes
Step Temp PotEng 
  129654            0   -208284.22 
  129669            0   -209882.75 
Loop time of 0.221577 on 20 procs for 15 steps with 1332 atoms

99.5% CPU use with 20 MPI tasks x no OpenMP threads

Minimization stats:
  Stopping criterion = energy tolerance
  Energy initial, next-to-last, final = 
     -208284.222268633  -209882.594434621  -209882.746807164
  Force two-norm initial, final = 1318.5647 10.501760
  Force max component initial, final = 163.81776 1.5702695
  Final line search alpha, max atom move = 0.014205192 0.022305980
  Iterations, force evaluations = 15 24

MPI task timing breakdown:
Section |  min time  |  avg time  |  max time  |%varavg| %total
---------------------------------------------------------------
Pair    | 1.6592e-05 | 0.018134   | 0.064132   |  17.6 |  8.18
Bond    | 2.9282e-05 | 0.00010484 | 0.00023355 |   0.0 |  0.05
Kspace  | 0.14807    | 0.19404    | 0.21256    |   5.4 | 87.57
Neigh   | 0.0020169  | 0.0020379  | 0.0020522  |   0.0 |  0.92
Comm    | 0.0029612  | 0.0045619  | 0.0061045  |   1.7 |  2.06
Output  | 0          | 0          | 0          |   0.0 |  0.00
Modify  | 2.0495e-05 | 3.3019e-05 | 4.8095e-05 |   0.0 |  0.01
Other   |            | 0.002661   |            |       |  1.20

Nlocal:        66.6000 ave         216 max           0 min
Histogram: 8 0 8 0 0 0 0 0 0 4
Nghost:        2081.60 ave        3157 max         861 min
Histogram: 8 0 0 0 0 0 0 0 8 4
Neighs:        27291.5 ave      101350 max           0 min
Histogram: 8 4 4 0 0 0 0 0 0 4
FullNghs:      54629.1 ave      197696 max           0 min
Histogram: 8 8 0 0 0 0 0 0 0 4

Total # of neighbors = 1092582
Ave neighs/atom = 820.25676
Ave special neighs/atom = 0.43243243
Neighbor list builds = 1
Dangerous builds = 0
  min_modify integrator eulerexplicit tmax 10.0 tmin 0.0 delaystep 5           dtgrow 1.1 dtshrink 0.5 alpha0 0.1 alphashrink 0.99           vdfmax 100000 halfstepback no initialdelay no
  unfix freeze

  # Electrostatic relaxation
  fix  swp feo atom/swap 1 1 ${rand} ${temp} ke no types 6 7
  fix  swp feo atom/swap 1 1 710414 ${temp} ke no types 6 7
  fix  swp feo atom/swap 1 1 710414 500000 ke no types 6 7
  thermo 1000
  thermo_style custom step v_ftemp v_cnum pe f_swp[1] f_swp[2] v_rfet3 v_rfeo3
  run ${nsteps}
  run 32400
PPPM initialization ...
  using 12-bit tables for long-range coulomb (../kspace.cpp:340)
  G vector (1/distance) = 0.28992484
  grid = 40 40 160
  stencil order = 5
  estimated absolute RMS force accuracy = 0.0003575219
  estimated relative force accuracy = 1.0766666e-06
  using double precision KISS FFT
  3d grid and FFT values/proc = 100920 46800
Per MPI rank memory allocation (min/avg/max) = 11.68 | 13.48 | 18.09 Mbytes
Step v_ftemp v_cnum PotEng f_swp[1] f_swp[2] v_rfet3 v_rfeo3 
  129669       500000          109   -209882.75            0            0            1          0.7 
  130000       500000          109   -207035.61          331          292            1          0.7 
  131000       500000          109   -206246.72         1331         1209            1          0.7 
  132000       500000          109   -206254.93         2331         2119            1          0.7 
  133000       500000          109   -206679.55         3331         3017            1          0.7 
  134000       500000          109   -206295.06         4331         3925            1          0.7 
  135000       500000          109   -207164.34         5331         4828            1          0.7 
  136000       500000          109   -206781.85         6331         5744            1          0.7 
  137000       500000          109   -206275.17         7331         6659            1          0.7 
  138000       500000          109   -205893.44         8331         7563            1          0.7 
  139000       500000          109   -206257.86         9331         8447            1          0.7 
  140000       500000          109   -206589.68        10331         9368            1          0.7 
  141000       500000          109   -205780.77        11331        10281            1          0.7 
  142000       500000          109   -205892.85        12331        11190            1          0.7 
  143000       500000          109   -205977.38        13331        12105            1          0.7 
  144000       500000          109   -207917.92        14331        13010            1          0.7 
  145000       500000          109   -206193.67        15331        13922            1          0.7 
  146000       500000          109   -207415.35        16331        14831            1          0.7 
  147000       500000          109   -206647.87        17331        15733            1          0.7 
  148000       500000          109   -207238.01        18331        16635            1          0.7 
  149000       500000          109   -206921.22        19331        17539            1          0.7 
  150000       500000          109   -206992.28        20331        18453            1          0.7 
  151000       500000          109   -206598.39        21331        19346            1          0.7 
  152000       500000          109   -207104.04        22331        20271            1          0.7 
  153000       500000          109   -207536.63        23331        21170            1          0.7 
  154000       500000          109   -205396.48        24331        22076            1          0.7 
  155000       500000          109    -207459.3        25331        22981            1          0.7 
  156000       500000          109   -207672.05        26331        23886            1          0.7 
  157000       500000          109   -205760.02        27331        24791            1          0.7 
  158000       500000          109   -207905.58        28331        25707            1          0.7 
  159000       500000          109   -206823.91        29331        26634            1          0.7 
  160000       500000          109   -207012.85        30331        27534            1          0.7 
  161000       500000          109   -206849.17        31331        28444            1          0.7 
  162000       500000          109   -207060.72        32331        29335            1          0.7 
  162069       500000          109   -206369.24        32400        29400            1          0.7 
Loop time of 1236.59 on 20 procs for 32400 steps with 1332 atoms

Performance: 1.132 ns/day, 21.204 hours/ns, 26.201 timesteps/s
99.4% CPU use with 20 MPI tasks x no OpenMP threads

MPI task timing breakdown:
Section |  min time  |  avg time  |  max time  |%varavg| %total
---------------------------------------------------------------
Pair    | 0.017081   | 15.573     | 55.39      | 514.6 |  1.26
Bond    | 0.018866   | 0.099268   | 0.24695    |  28.9 |  0.01
Kspace  | 191.65     | 231.52     | 247.36     | 134.0 | 18.72
Neigh   | 63.798     | 64.111     | 64.461     |   2.3 |  5.18
Comm    | 11.719     | 13.788     | 15.879     |  41.4 |  1.11
Output  | 0.0041327  | 0.0063208  | 0.0091055  |   2.0 |  0.00
Modify  | 909.14     | 911.12     | 912.87     |   4.9 | 73.68
Other   |            | 0.3733     |            |       |  0.03

Nlocal:        66.6000 ave         216 max           0 min
Histogram: 8 0 8 0 0 0 0 0 0 4
Nghost:        2081.60 ave        3157 max         861 min
Histogram: 8 0 0 0 0 0 0 0 8 4
Neighs:        27291.2 ave      101350 max           0 min
Histogram: 8 4 4 0 0 0 0 0 0 4
FullNghs:      54629.1 ave      197696 max           0 min
Histogram: 8 8 0 0 0 0 0 0 0 4

Total # of neighbors = 1092582
Ave neighs/atom = 820.25676
Ave special neighs/atom = 0.43243243
Neighbor list builds = 64800
Dangerous builds = 0

  variable cnum equal (${cnum}-1)
  variable cnum equal (109-1)

  unfix swp
  thermo_style custom step temp pe
  write_data  001-dbt_3x3_${layer}L_fa_${type}_${cnum}_${temp}K.data
  write_data  001-dbt_3x3_17L_fa_${type}_${cnum}_${temp}K.data
  write_data  001-dbt_3x3_17L_fa_tet_full_${cnum}_${temp}K.data
  write_data  001-dbt_3x3_17L_fa_tet_full_108_${temp}K.data
  write_data  001-dbt_3x3_17L_fa_tet_full_108_500000K.data
System init for write_data ...
PPPM initialization ...
  using 12-bit tables for long-range coulomb (../kspace.cpp:340)
  G vector (1/distance) = 0.28992484
  grid = 40 40 160
  stencil order = 5
  estimated absolute RMS force accuracy = 0.0003575219
  estimated relative force accuracy = 1.0766666e-06
  using double precision KISS FFT
  3d grid and FFT values/proc = 100920 46800

next temp
jump SELF minimize_temp

  variable ftemp equal v_temp

  # Minimize top formate
  fix freeze immo_top_fa setforce 0.0 0.0 0.0
  minimize 1.0e-6 1.0e-9 1000 10000
PPPM initialization ...
  using 12-bit tables for long-range coulomb (../kspace.cpp:340)
  G vector (1/distance) = 0.28992484
  grid = 40 40 160
  stencil order = 5
  estimated absolute RMS force accuracy = 0.0003575219
  estimated relative force accuracy = 1.0766666e-06
  using double precision KISS FFT
  3d grid and FFT values/proc = 100920 46800
Per MPI rank memory allocation (min/avg/max) = 12.80 | 14.60 | 19.22 Mbytes
Step Temp PotEng 
  162069            0   -206369.24 
  162127            0    -206545.6 
Loop time of 1.01876 on 20 procs for 58 steps with 1332 atoms

99.4% CPU use with 20 MPI tasks x no OpenMP threads

Minimization stats:
  Stopping criterion = energy tolerance
  Energy initial, next-to-last, final = 
     -206369.238297186  -206545.485051972  -206545.596709645
  Force two-norm initial, final = 201.06021 15.552125
  Force max component initial, final = 42.035367 5.3616526
  Final line search alpha, max atom move = 0.0037213879 0.019952789
  Iterations, force evaluations = 58 114

MPI task timing breakdown:
Section |  min time  |  avg time  |  max time  |%varavg| %total
---------------------------------------------------------------
Pair    | 6.0204e-05 | 0.083485   | 0.29822    |  37.9 |  8.19
Bond    | 0.00013175 | 0.00046574 | 0.0010692  |   0.0 |  0.05
Kspace  | 0.68278    | 0.89743    | 0.98258    |  11.6 | 88.09
Neigh   | 0.0059199  | 0.0059466  | 0.0059906  |   0.0 |  0.58
Comm    | 0.013407   | 0.020757   | 0.027816   |   3.8 |  2.04
Output  | 0          | 0          | 0          |   0.0 |  0.00
Modify  | 9.9879e-05 | 0.00015111 | 0.00021969 |   0.0 |  0.01
Other   |            | 0.01052    |            |       |  1.03

Nlocal:        66.6000 ave         216 max           0 min
Histogram: 8 0 8 0 0 0 0 0 0 4
Nghost:        2083.85 ave        3160 max         864 min
Histogram: 8 0 0 0 0 0 0 0 8 4
Neighs:        27282.0 ave      101297 max           0 min
Histogram: 8 4 4 0 0 0 0 0 0 4
FullNghs:      54629.1 ave      197696 max           0 min
Histogram: 8 8 0 0 0 0 0 0 0 4

Total # of neighbors = 1092582
Ave neighs/atom = 820.25676
Ave special neighs/atom = 0.43243243
Neighbor list builds = 3
Dangerous builds = 0
  min_modify integrator eulerexplicit tmax 10.0 tmin 0.0 delaystep 5           dtgrow 1.1 dtshrink 0.5 alpha0 0.1 alphashrink 0.99           vdfmax 100000 halfstepback no initialdelay no
  unfix freeze

  # Minimize top ho
  fix freeze immo_top_ho setforce 0.0 0.0 0.0
  minimize 1.0e-6 1.0e-9 1000 10000
PPPM initialization ...
  using 12-bit tables for long-range coulomb (../kspace.cpp:340)
  G vector (1/distance) = 0.28992484
  grid = 40 40 160
  stencil order = 5
  estimated absolute RMS force accuracy = 0.0003575219
  estimated relative force accuracy = 1.0766666e-06
  using double precision KISS FFT
  3d grid and FFT values/proc = 100920 46800
Per MPI rank memory allocation (min/avg/max) = 12.80 | 14.60 | 19.22 Mbytes
Step Temp PotEng 
  162127            0    -206545.6 
  162138            0   -206628.67 
Loop time of 0.202793 on 20 procs for 11 steps with 1332 atoms

99.5% CPU use with 20 MPI tasks x no OpenMP threads

Minimization stats:
  Stopping criterion = energy tolerance
  Energy initial, next-to-last, final = 
     -206545.596709645  -206628.606157027  -206628.673492958
  Force two-norm initial, final = 324.77780 8.4151255
  Force max component initial, final = 73.266051 1.9236463
  Final line search alpha, max atom move = 0.022997585 0.044239218
  Iterations, force evaluations = 11 22

MPI task timing breakdown:
Section |  min time  |  avg time  |  max time  |%varavg| %total
---------------------------------------------------------------
Pair    | 1.6547e-05 | 0.016746   | 0.059473   |  16.9 |  8.26
Bond    | 2.7199e-05 | 9.7423e-05 | 0.0002234  |   0.0 |  0.05
Kspace  | 0.13672    | 0.17942    | 0.19651    |   5.2 | 88.47
Neigh   | 0          | 0          | 0          |   0.0 |  0.00
Comm    | 0.0025909  | 0.0040477  | 0.0054347  |   1.7 |  2.00
Output  | 0          | 0          | 0          |   0.0 |  0.00
Modify  | 2.1007e-05 | 3.0927e-05 | 4.3704e-05 |   0.0 |  0.02
Other   |            | 0.002451   |            |       |  1.21

Nlocal:        66.6000 ave         216 max           0 min
Histogram: 8 0 8 0 0 0 0 0 0 4
Nghost:        2084.90 ave        3162 max         866 min
Histogram: 8 0 0 0 0 0 0 0 8 4
Neighs:        27281.5 ave      101238 max           0 min
Histogram: 8 4 4 0 0 0 0 0 0 4
FullNghs:      54629.1 ave      197696 max           0 min
Histogram: 8 8 0 0 0 0 0 0 0 4

Total # of neighbors = 1092582
Ave neighs/atom = 820.25676
Ave special neighs/atom = 0.43243243
Neighbor list builds = 0
Dangerous builds = 0
  min_modify integrator eulerexplicit tmax 10.0 tmin 0.0 delaystep 5           dtgrow 1.1 dtshrink 0.5 alpha0 0.1 alphashrink 0.99           vdfmax 100000 halfstepback no initialdelay no
  unfix freeze

  # Minimize bottom formate
  fix freeze immo_bottom_fa setforce 0.0 0.0 0.0
  minimize 1.0e-6 1.0e-9 1000 10000
PPPM initialization ...
  using 12-bit tables for long-range coulomb (../kspace.cpp:340)
  G vector (1/distance) = 0.28992484
  grid = 40 40 160
  stencil order = 5
  estimated absolute RMS force accuracy = 0.0003575219
  estimated relative force accuracy = 1.0766666e-06
  using double precision KISS FFT
  3d grid and FFT values/proc = 100920 46800
Per MPI rank memory allocation (min/avg/max) = 12.80 | 14.60 | 19.22 Mbytes
Step Temp PotEng 
  162138            0   -206628.67 
  162193            0   -206796.78 
Loop time of 0.937492 on 20 procs for 55 steps with 1332 atoms

99.4% CPU use with 20 MPI tasks x no OpenMP threads

Minimization stats:
  Stopping criterion = energy tolerance
  Energy initial, next-to-last, final = 
     -206628.673492958  -206796.600552291   -206796.78086488
  Force two-norm initial, final = 202.72825 20.524245
  Force max component initial, final = 43.902926 9.1264813
  Final line search alpha, max atom move = 0.0030395991 0.027740844
  Iterations, force evaluations = 55 105

MPI task timing breakdown:
Section |  min time  |  avg time  |  max time  |%varavg| %total
---------------------------------------------------------------
Pair    | 5.3147e-05 | 0.077168   | 0.27423    |  36.4 |  8.23
Bond    | 0.00012515 | 0.00043859 | 0.0010736  |   0.0 |  0.05
Kspace  | 0.63042    | 0.82743    | 0.90622    |  11.1 | 88.26
Neigh   | 0.0039649  | 0.0039847  | 0.0040127  |   0.0 |  0.43
Comm    | 0.012021   | 0.018642   | 0.025023   |   3.6 |  1.99
Output  | 0          | 0          | 0          |   0.0 |  0.00
Modify  | 8.8922e-05 | 0.00013776 | 0.00020295 |   0.0 |  0.01
Other   |            | 0.00969    |            |       |  1.03

Nlocal:        66.6000 ave         216 max           0 min
Histogram: 8 0 8 0 0 0 0 0 0 4
Nghost:        2082.65 ave        3157 max         860 min
Histogram: 8 0 0 0 0 0 0 0 8 4
Neighs:        27284.5 ave      101299 max           0 min
Histogram: 8 4 4 0 0 0 0 0 0 4
FullNghs:      54629.1 ave      197696 max           0 min
Histogram: 8 8 0 0 0 0 0 0 0 4

Total # of neighbors = 1092582
Ave neighs/atom = 820.25676
Ave special neighs/atom = 0.43243243
Neighbor list builds = 2
Dangerous builds = 0
  min_modify integrator eulerexplicit tmax 10.0 tmin 0.0 delaystep 5           dtgrow 1.1 dtshrink 0.5 alpha0 0.1 alphashrink 0.99           vdfmax 100000 halfstepback no initialdelay no
  unfix freeze

  # Minimize bottom ho
  fix freeze immo_bottom_ho setforce 0.0 0.0 0.0
  minimize 1.0e-6 1.0e-9 1000 10000
PPPM initialization ...
  using 12-bit tables for long-range coulomb (../kspace.cpp:340)
  G vector (1/distance) = 0.28992484
  grid = 40 40 160
  stencil order = 5
  estimated absolute RMS force accuracy = 0.0003575219
  estimated relative force accuracy = 1.0766666e-06
  using double precision KISS FFT
  3d grid and FFT values/proc = 100920 46800
Per MPI rank memory allocation (min/avg/max) = 12.80 | 14.60 | 19.22 Mbytes
Step Temp PotEng 
  162193            0   -206796.78 
  162202            0      -206900 
Loop time of 0.167284 on 20 procs for 9 steps with 1332 atoms

99.4% CPU use with 20 MPI tasks x no OpenMP threads

Minimization stats:
  Stopping criterion = energy tolerance
  Energy initial, next-to-last, final = 
     -206796.780864882  -206899.851158925  -206900.003313889
  Force two-norm initial, final = 367.10212 12.856227
  Force max component initial, final = 81.174669 3.8676220
  Final line search alpha, max atom move = 0.014253032 0.055125340
  Iterations, force evaluations = 9 18

MPI task timing breakdown:
Section |  min time  |  avg time  |  max time  |%varavg| %total
---------------------------------------------------------------
Pair    | 1.3104e-05 | 0.013839   | 0.049081   |  15.4 |  8.27
Bond    | 2.2667e-05 | 8.0152e-05 | 0.00019107 |   0.0 |  0.05
Kspace  | 0.1127     | 0.14794    | 0.16208    |   4.7 | 88.44
Neigh   | 0          | 0          | 0          |   0.0 |  0.00
Comm    | 0.0020964  | 0.0033024  | 0.0044402  |   1.5 |  1.97
Output  | 0          | 0          | 0          |   0.0 |  0.00
Modify  | 1.6356e-05 | 2.5659e-05 | 3.6303e-05 |   0.0 |  0.02
Other   |            | 0.002094   |            |       |  1.25

Nlocal:        66.6000 ave         216 max           0 min
Histogram: 8 0 8 0 0 0 0 0 0 4
Nghost:        2083.55 ave        3158 max         860 min
Histogram: 8 0 0 0 0 0 0 0 8 4
Neighs:        27281.2 ave      101344 max           0 min
Histogram: 8 4 4 0 0 0 0 0 0 4
FullNghs:      54629.1 ave      197696 max           0 min
Histogram: 8 8 0 0 0 0 0 0 0 4

Total # of neighbors = 1092582
Ave neighs/atom = 820.25676
Ave special neighs/atom = 0.43243243
Neighbor list builds = 0
Dangerous builds = 0
  min_modify integrator eulerexplicit tmax 10.0 tmin 0.0 delaystep 5           dtgrow 1.1 dtshrink 0.5 alpha0 0.1 alphashrink 0.99           vdfmax 100000 halfstepback no initialdelay no
  unfix freeze

  # Electrostatic relaxation
  fix  swp feo atom/swap 1 1 ${rand} ${temp} ke no types 6 7
  fix  swp feo atom/swap 1 1 755762 ${temp} ke no types 6 7
  fix  swp feo atom/swap 1 1 755762 450000 ke no types 6 7
  thermo 1000
  thermo_style custom step v_ftemp v_cnum pe f_swp[1] f_swp[2] v_rfet3 v_rfeo3
  run ${nsteps}
  run 32400
PPPM initialization ...
  using 12-bit tables for long-range coulomb (../kspace.cpp:340)
  G vector (1/distance) = 0.28992484
  grid = 40 40 160
  stencil order = 5
  estimated absolute RMS force accuracy = 0.0003575219
  estimated relative force accuracy = 1.0766666e-06
  using double precision KISS FFT
  3d grid and FFT values/proc = 100920 46800
Per MPI rank memory allocation (min/avg/max) = 11.68 | 13.48 | 18.09 Mbytes
Step v_ftemp v_cnum PotEng f_swp[1] f_swp[2] v_rfet3 v_rfeo3 
  162202       450000          108      -206900            0            0            1          0.7 
  163000       450000          108   -206561.63          798          732            1          0.7 
  164000       450000          108   -206875.02         1798         1648            1          0.7 
  165000       450000          108   -206700.83         2798         2564            1          0.7 
  166000       450000          108    -205992.4         3798         3482            1          0.7 
  167000       450000          108   -206454.52         4798         4396            1          0.7 
  168000       450000          108   -207637.46         5798         5303            1          0.7 
  169000       450000          108   -206234.24         6798         6194            1          0.7 
  170000       450000          108   -207743.84         7798         7096            1          0.7 
  171000       450000          108   -205530.32         8798         7989            1          0.7 
  172000       450000          108   -204445.45         9798         8889            1          0.7 
  173000       450000          108   -206498.97        10798         9787            1          0.7 
  174000       450000          108   -206582.96        11798        10687            1          0.7 
  175000       450000          108    -207086.6        12798        11583            1          0.7 
  176000       450000          108   -206156.86        13798        12493            1          0.7 
  177000       450000          108   -206159.21        14798        13382            1          0.7 
  178000       450000          108   -206665.45        15798        14298            1          0.7 
  179000       450000          108   -206695.74        16798        15206            1          0.7 
  180000       450000          108   -206308.56        17798        16114            1          0.7 
  181000       450000          108   -206848.58        18798        17025            1          0.7 
  182000       450000          108   -206858.81        19798        17905            1          0.7 
  183000       450000          108   -207398.73        20798        18806            1          0.7 
  184000       450000          108   -206156.63        21798        19707            1          0.7 
  185000       450000          108   -206804.22        22798        20605            1          0.7 
  186000       450000          108   -207367.33        23798        21518            1          0.7 
  187000       450000          108    -206162.7        24798        22423            1          0.7 
  188000       450000          108   -207208.74        25798        23323            1          0.7 
  189000       450000          108   -206396.62        26798        24228            1          0.7 
  190000       450000          108   -206778.73        27798        25139            1          0.7 
  191000       450000          108   -207044.95        28798        26049            1          0.7 
  192000       450000          108   -205514.52        29798        26959            1          0.7 
  193000       450000          108   -206579.11        30798        27858            1          0.7 
  194000       450000          108    -206646.8        31798        28748            1          0.7 
  194602       450000          108   -207923.05        32400        29295            1          0.7 
Loop time of 1241.15 on 20 procs for 32400 steps with 1332 atoms

Performance: 1.128 ns/day, 21.282 hours/ns, 26.105 timesteps/s
99.4% CPU use with 20 MPI tasks x no OpenMP threads

MPI task timing breakdown:
Section |  min time  |  avg time  |  max time  |%varavg| %total
---------------------------------------------------------------
Pair    | 0.016879   | 15.606     | 55.53      | 515.5 |  1.26
Bond    | 0.019968   | 0.10549    | 0.26543    |  30.4 |  0.01
Kspace  | 192.03     | 232.02     | 247.9      | 134.2 | 18.69
Neigh   | 64.166     | 64.497     | 64.86      |   2.3 |  5.20
Comm    | 11.78      | 13.875     | 15.998     |  41.5 |  1.12
Output  | 0.00399    | 0.0061416  | 0.008924   |   2.1 |  0.00
Modify  | 912.69     | 914.68     | 916.44     |   4.9 | 73.70
Other   |            | 0.3628     |            |       |  0.03

Nlocal:        66.6000 ave         216 max           0 min
Histogram: 8 0 8 0 0 0 0 0 0 4
Nghost:        2083.55 ave        3158 max         860 min
Histogram: 8 0 0 0 0 0 0 0 8 4
Neighs:        27291.0 ave      101355 max           0 min
Histogram: 8 4 4 0 0 0 0 0 0 4
FullNghs:      54629.1 ave      197696 max           0 min
Histogram: 8 8 0 0 0 0 0 0 0 4

Total # of neighbors = 1092582
Ave neighs/atom = 820.25676
Ave special neighs/atom = 0.43243243
Neighbor list builds = 64800
Dangerous builds = 0

  variable cnum equal (${cnum}-1)
  variable cnum equal (108-1)

  unfix swp
  thermo_style custom step temp pe
  write_data  001-dbt_3x3_${layer}L_fa_${type}_${cnum}_${temp}K.data
  write_data  001-dbt_3x3_17L_fa_${type}_${cnum}_${temp}K.data
  write_data  001-dbt_3x3_17L_fa_tet_full_${cnum}_${temp}K.data
  write_data  001-dbt_3x3_17L_fa_tet_full_107_${temp}K.data
  write_data  001-dbt_3x3_17L_fa_tet_full_107_450000K.data
System init for write_data ...
PPPM initialization ...
  using 12-bit tables for long-range coulomb (../kspace.cpp:340)
  G vector (1/distance) = 0.28992484
  grid = 40 40 160
  stencil order = 5
  estimated absolute RMS force accuracy = 0.0003575219
  estimated relative force accuracy = 1.0766666e-06
  using double precision KISS FFT
  3d grid and FFT values/proc = 100920 46800

next temp
jump SELF minimize_temp

  variable ftemp equal v_temp

  # Minimize top formate
  fix freeze immo_top_fa setforce 0.0 0.0 0.0
  minimize 1.0e-6 1.0e-9 1000 10000
PPPM initialization ...
  using 12-bit tables for long-range coulomb (../kspace.cpp:340)
  G vector (1/distance) = 0.28992484
  grid = 40 40 160
  stencil order = 5
  estimated absolute RMS force accuracy = 0.0003575219
  estimated relative force accuracy = 1.0766666e-06
  using double precision KISS FFT
  3d grid and FFT values/proc = 100920 46800
Per MPI rank memory allocation (min/avg/max) = 12.80 | 14.60 | 19.22 Mbytes
Step Temp PotEng 
  194602            0   -207923.05 
  194640            0   -208093.73 
Loop time of 0.637612 on 20 procs for 38 steps with 1332 atoms

99.5% CPU use with 20 MPI tasks x no OpenMP threads

Minimization stats:
  Stopping criterion = energy tolerance
  Energy initial, next-to-last, final = 
     -207923.049641821  -208093.526382939  -208093.731179103
  Force two-norm initial, final = 168.58658 23.070844
  Force max component initial, final = 45.987785 10.874100
  Final line search alpha, max atom move = 0.0047196424 0.051321862
  Iterations, force evaluations = 38 71

MPI task timing breakdown:
Section |  min time  |  avg time  |  max time  |%varavg| %total
---------------------------------------------------------------
Pair    | 4.0784e-05 | 0.052597   | 0.18577    |  30.0 |  8.25
Bond    | 7.8011e-05 | 0.00029578 | 0.00075276 |   0.0 |  0.05
Kspace  | 0.4277     | 0.56087    | 0.61455    |   9.2 | 87.96
Neigh   | 0.0039872  | 0.0040086  | 0.0040373  |   0.0 |  0.63
Comm    | 0.0083759  | 0.012945   | 0.017297   |   3.0 |  2.03
Output  | 0          | 0          | 0          |   0.0 |  0.00
Modify  | 6.7203e-05 | 9.4256e-05 | 0.00013913 |   0.0 |  0.01
Other   |            | 0.006798   |            |       |  1.07

Nlocal:        66.6000 ave         216 max           0 min
Histogram: 8 0 8 0 0 0 0 0 0 4
Nghost:        2078.15 ave        3151 max         852 min
Histogram: 8 0 0 0 0 0 0 0 8 4
Neighs:        27296.5 ave      101389 max           0 min
Histogram: 8 4 4 0 0 0 0 0 0 4
FullNghs:      54629.1 ave      197696 max           0 min
Histogram: 8 8 0 0 0 0 0 0 0 4

Total # of neighbors = 1092582
Ave neighs/atom = 820.25676
Ave special neighs/atom = 0.43243243
Neighbor list builds = 2
Dangerous builds = 0
  min_modify integrator eulerexplicit tmax 10.0 tmin 0.0 delaystep 5           dtgrow 1.1 dtshrink 0.5 alpha0 0.1 alphashrink 0.99           vdfmax 100000 halfstepback no initialdelay no
  unfix freeze

  # Minimize top ho
  fix freeze immo_top_ho setforce 0.0 0.0 0.0
  minimize 1.0e-6 1.0e-9 1000 10000
PPPM initialization ...
  using 12-bit tables for long-range coulomb (../kspace.cpp:340)
  G vector (1/distance) = 0.28992484
  grid = 40 40 160
  stencil order = 5
  estimated absolute RMS force accuracy = 0.0003575219
  estimated relative force accuracy = 1.0766666e-06
  using double precision KISS FFT
  3d grid and FFT values/proc = 100920 46800
Per MPI rank memory allocation (min/avg/max) = 12.80 | 14.60 | 19.22 Mbytes
Step Temp PotEng 
  194640            0   -208093.73 
  194651            0   -208186.74 
Loop time of 0.193171 on 20 procs for 11 steps with 1332 atoms

99.5% CPU use with 20 MPI tasks x no OpenMP threads

Minimization stats:
  Stopping criterion = energy tolerance
  Energy initial, next-to-last, final = 
     -208093.731179105  -208186.650060213  -208186.744523498
  Force two-norm initial, final = 303.69462 12.105268
  Force max component initial, final = 63.591835 4.1482523
  Final line search alpha, max atom move = 0.022352117 0.092722221
  Iterations, force evaluations = 11 21

MPI task timing breakdown:
Section |  min time  |  avg time  |  max time  |%varavg| %total
---------------------------------------------------------------
Pair    | 1.3515e-05 | 0.015977   | 0.056503   |  16.6 |  8.27
Bond    | 2.5532e-05 | 9.2689e-05 | 0.00021414 |   0.0 |  0.05
Kspace  | 0.13041    | 0.17091    | 0.18723    |   5.1 | 88.48
Neigh   | 0          | 0          | 0          |   0.0 |  0.00
Comm    | 0.0023312  | 0.0037543  | 0.0051347  |   1.7 |  1.94
Output  | 0          | 0          | 0          |   0.0 |  0.00
Modify  | 1.738e-05  | 2.8767e-05 | 4.0547e-05 |   0.0 |  0.01
Other   |            | 0.002408   |            |       |  1.25

Nlocal:        66.6000 ave         216 max           0 min
Histogram: 8 0 8 0 0 0 0 0 0 4
Nghost:        2078.15 ave        3151 max         852 min
Histogram: 8 0 0 0 0 0 0 0 8 4
Neighs:        27296.6 ave      101387 max           0 min
Histogram: 8 4 4 0 0 0 0 0 0 4
FullNghs:      54629.1 ave      197696 max           0 min
Histogram: 8 8 0 0 0 0 0 0 0 4

Total # of neighbors = 1092582
Ave neighs/atom = 820.25676
Ave special neighs/atom = 0.43243243
Neighbor list builds = 0
Dangerous builds = 0
  min_modify integrator eulerexplicit tmax 10.0 tmin 0.0 delaystep 5           dtgrow 1.1 dtshrink 0.5 alpha0 0.1 alphashrink 0.99           vdfmax 100000 halfstepback no initialdelay no
  unfix freeze

  # Minimize bottom formate
  fix freeze immo_bottom_fa setforce 0.0 0.0 0.0
  minimize 1.0e-6 1.0e-9 1000 10000
PPPM initialization ...
  using 12-bit tables for long-range coulomb (../kspace.cpp:340)
  G vector (1/distance) = 0.28992484
  grid = 40 40 160
  stencil order = 5
  estimated absolute RMS force accuracy = 0.0003575219
  estimated relative force accuracy = 1.0766666e-06
  using double precision KISS FFT
  3d grid and FFT values/proc = 100920 46800
Per MPI rank memory allocation (min/avg/max) = 12.80 | 14.60 | 19.22 Mbytes
Step Temp PotEng 
  194651            0   -208186.74 
  194705            0    -208327.5 
Loop time of 0.867066 on 20 procs for 54 steps with 1332 atoms

99.5% CPU use with 20 MPI tasks x no OpenMP threads

Minimization stats:
  Stopping criterion = energy tolerance
  Energy initial, next-to-last, final = 
     -208186.744523498  -208327.296519412  -208327.500861362
  Force two-norm initial, final = 168.39214 28.584334
  Force max component initial, final = 46.289210 7.6748958
  Final line search alpha, max atom move = 0.0041366928 0.031748686
  Iterations, force evaluations = 54 97

MPI task timing breakdown:
Section |  min time  |  avg time  |  max time  |%varavg| %total
---------------------------------------------------------------
Pair    | 5.4116e-05 | 0.071469   | 0.25319    |  35.0 |  8.24
Bond    | 0.00011943 | 0.00040961 | 0.00095369 |   0.0 |  0.05
Kspace  | 0.58294    | 0.76454    | 0.83756    |  10.7 | 88.18
Neigh   | 0.0039978  | 0.004015   | 0.0040406  |   0.0 |  0.46
Comm    | 0.011281   | 0.017519   | 0.023435   |   3.4 |  2.02
Output  | 0          | 0          | 0          |   0.0 |  0.00
Modify  | 8.5308e-05 | 0.0001276  | 0.00018442 |   0.0 |  0.01
Other   |            | 0.008981   |            |       |  1.04

Nlocal:        66.6000 ave         216 max           0 min
Histogram: 8 0 8 0 0 0 0 0 0 4
Nghost:        2081.30 ave        3156 max         852 min
Histogram: 8 0 0 0 0 0 0 0 8 4
Neighs:        27310.3 ave      101385 max           0 min
Histogram: 8 4 4 0 0 0 0 0 0 4
FullNghs:      54629.1 ave      197696 max           0 min
Histogram: 8 8 0 0 0 0 0 0 0 4

Total # of neighbors = 1092582
Ave neighs/atom = 820.25676
Ave special neighs/atom = 0.43243243
Neighbor list builds = 2
Dangerous builds = 0
  min_modify integrator eulerexplicit tmax 10.0 tmin 0.0 delaystep 5           dtgrow 1.1 dtshrink 0.5 alpha0 0.1 alphashrink 0.99           vdfmax 100000 halfstepback no initialdelay no
  unfix freeze

  # Minimize bottom ho
  fix freeze immo_bottom_ho setforce 0.0 0.0 0.0
  minimize 1.0e-6 1.0e-9 1000 10000
PPPM initialization ...
  using 12-bit tables for long-range coulomb (../kspace.cpp:340)
  G vector (1/distance) = 0.28992484
  grid = 40 40 160
  stencil order = 5
  estimated absolute RMS force accuracy = 0.0003575219
  estimated relative force accuracy = 1.0766666e-06
  using double precision KISS FFT
  3d grid and FFT values/proc = 100920 46800
Per MPI rank memory allocation (min/avg/max) = 12.80 | 14.60 | 19.22 Mbytes
Step Temp PotEng 
  194705            0    -208327.5 
  194714            0   -208434.26 
Loop time of 0.158363 on 20 procs for 9 steps with 1332 atoms

99.2% CPU use with 20 MPI tasks x no OpenMP threads

Minimization stats:
  Stopping criterion = energy tolerance
  Energy initial, next-to-last, final = 
      -208327.50086136  -208434.143618346  -208434.263211783
  Force two-norm initial, final = 369.30432 16.100410
  Force max component initial, final = 96.003071 3.8818593
  Final line search alpha, max atom move = 0.027548580 0.10693971
  Iterations, force evaluations = 9 17

MPI task timing breakdown:
Section |  min time  |  avg time  |  max time  |%varavg| %total
---------------------------------------------------------------
Pair    | 1.4497e-05 | 0.013108   | 0.046595   |  14.9 |  8.28
Bond    | 2.0923e-05 | 7.5756e-05 | 0.0001824  |   0.0 |  0.05
Kspace  | 0.10658    | 0.14007    | 0.15346    |   4.6 | 88.45
Neigh   | 0          | 0          | 0          |   0.0 |  0.00
Comm    | 0.0019103  | 0.0030537  | 0.0041471  |   1.5 |  1.93
Output  | 0          | 0          | 0          |   0.0 |  0.00
Modify  | 1.7015e-05 | 2.4675e-05 | 4.0469e-05 |   0.0 |  0.02
Other   |            | 0.00203    |            |       |  1.28

Nlocal:        66.6000 ave         216 max           0 min
Histogram: 8 0 8 0 0 0 0 0 0 4
Nghost:        2081.30 ave        3156 max         852 min
Histogram: 8 0 0 0 0 0 0 0 8 4
Neighs:        27310.2 ave      101355 max           0 min
Histogram: 8 4 4 0 0 0 0 0 0 4
FullNghs:      54629.1 ave      197696 max           0 min
Histogram: 8 8 0 0 0 0 0 0 0 4

Total # of neighbors = 1092582
Ave neighs/atom = 820.25676
Ave special neighs/atom = 0.43243243
Neighbor list builds = 0
Dangerous builds = 0
  min_modify integrator eulerexplicit tmax 10.0 tmin 0.0 delaystep 5           dtgrow 1.1 dtshrink 0.5 alpha0 0.1 alphashrink 0.99           vdfmax 100000 halfstepback no initialdelay no
  unfix freeze

  # Electrostatic relaxation
  fix  swp feo atom/swap 1 1 ${rand} ${temp} ke no types 6 7
  fix  swp feo atom/swap 1 1 4574249 ${temp} ke no types 6 7
  fix  swp feo atom/swap 1 1 4574249 405000 ke no types 6 7
  thermo 1000
  thermo_style custom step v_ftemp v_cnum pe f_swp[1] f_swp[2] v_rfet3 v_rfeo3
  run ${nsteps}
  run 32400
PPPM initialization ...
  using 12-bit tables for long-range coulomb (../kspace.cpp:340)
  G vector (1/distance) = 0.28992484
  grid = 40 40 160
  stencil order = 5
  estimated absolute RMS force accuracy = 0.0003575219
  estimated relative force accuracy = 1.0766666e-06
  using double precision KISS FFT
  3d grid and FFT values/proc = 100920 46800
Per MPI rank memory allocation (min/avg/max) = 11.68 | 13.48 | 18.09 Mbytes
Step v_ftemp v_cnum PotEng f_swp[1] f_swp[2] v_rfet3 v_rfeo3 
  194714       405000          107   -208434.26            0            0            1          0.7 
  195000       405000          107   -207996.84          286          261            1          0.7 
  196000       405000          107   -205897.71         1286         1161            1          0.7 
  197000       405000          107      -207332         2286         2073            1          0.7 
  198000       405000          107   -207598.41         3286         2967            1          0.7 
  199000       405000          107   -208255.54         4286         3873            1          0.7 
  200000       405000          107   -207534.86         5286         4762            1          0.7 
  201000       405000          107   -207512.68         6286         5674            1          0.7 
  202000       405000          107   -206737.27         7286         6565            1          0.7 
  203000       405000          107   -206733.26         8286         7464            1          0.7 
  204000       405000          107   -207387.08         9286         8393            1          0.7 
  205000       405000          107   -207463.51        10286         9275            1          0.7 
  206000       405000          107   -206277.55        11286        10172            1          0.7 
  207000       405000          107   -207396.83        12286        11069            1          0.7 
  208000       405000          107   -207281.02        13286        11971            1          0.7 
  209000       405000          107   -207963.72        14286        12865            1          0.7 
  210000       405000          107   -207377.84        15286        13776            1          0.7 
  211000       405000          107   -205738.88        16286        14679            1          0.7 
  212000       405000          107   -205997.55        17286        15573            1          0.7 
  213000       405000          107   -206501.81        18286        16453            1          0.7 
  214000       405000          107   -206705.09        19286        17342            1          0.7 
  215000       405000          107   -207072.77        20286        18242            1          0.7 
  216000       405000          107   -207022.77        21286        19129            1          0.7 
  217000       405000          107   -207645.66        22286        20023            1          0.7 
  218000       405000          107   -207157.27        23286        20920            1          0.7 
  219000       405000          107   -206427.15        24286        21810            1          0.7 
  220000       405000          107   -206728.71        25286        22711            1          0.7 
  221000       405000          107   -206906.17        26286        23614            1          0.7 
  222000       405000          107   -207477.97        27286        24492            1          0.7 
  223000       405000          107   -206756.09        28286        25377            1          0.7 
  224000       405000          107    -206499.9        29286        26270            1          0.7 
  225000       405000          107   -207610.37        30286        27179            1          0.7 
  226000       405000          107   -206236.31        31286        28082            1          0.7 
  227000       405000          107    -207272.5        32286        28960            1          0.7 
  227114       405000          107   -206057.08        32400        29064            1          0.7 
Loop time of 1241.77 on 20 procs for 32400 steps with 1332 atoms

Performance: 1.127 ns/day, 21.292 hours/ns, 26.092 timesteps/s
99.4% CPU use with 20 MPI tasks x no OpenMP threads

MPI task timing breakdown:
Section |  min time  |  avg time  |  max time  |%varavg| %total
---------------------------------------------------------------
Pair    | 0.016927   | 15.609     | 55.558     | 515.2 |  1.26
Bond    | 0.019741   | 0.10187    | 0.2483     |  29.5 |  0.01
Kspace  | 192.42     | 232.44     | 248.33     | 134.1 | 18.72
Neigh   | 64.185     | 64.478     | 64.826     |   2.2 |  5.19
Comm    | 11.726     | 13.79      | 15.851     |  41.4 |  1.11
Output  | 0.0038111  | 0.0059993  | 0.0088307  |   2.1 |  0.00
Modify  | 913.01     | 914.98     | 916.72     |   4.9 | 73.68
Other   |            | 0.3673     |            |       |  0.03

Nlocal:        66.6000 ave         216 max           0 min
Histogram: 8 0 8 0 0 0 0 0 0 4
Nghost:        2081.30 ave        3156 max         852 min
Histogram: 8 0 0 0 0 0 0 0 8 4
Neighs:        27314.1 ave      101363 max           0 min
Histogram: 8 4 4 0 0 0 0 0 0 4
FullNghs:      54629.1 ave      197696 max           0 min
Histogram: 8 8 0 0 0 0 0 0 0 4

Total # of neighbors = 1092582
Ave neighs/atom = 820.25676
Ave special neighs/atom = 0.43243243
Neighbor list builds = 64800
Dangerous builds = 0

  variable cnum equal (${cnum}-1)
  variable cnum equal (107-1)

  unfix swp
  thermo_style custom step temp pe
  write_data  001-dbt_3x3_${layer}L_fa_${type}_${cnum}_${temp}K.data
  write_data  001-dbt_3x3_17L_fa_${type}_${cnum}_${temp}K.data
  write_data  001-dbt_3x3_17L_fa_tet_full_${cnum}_${temp}K.data
  write_data  001-dbt_3x3_17L_fa_tet_full_106_${temp}K.data
  write_data  001-dbt_3x3_17L_fa_tet_full_106_405000K.data
System init for write_data ...
PPPM initialization ...
  using 12-bit tables for long-range coulomb (../kspace.cpp:340)
  G vector (1/distance) = 0.28992484
  grid = 40 40 160
  stencil order = 5
  estimated absolute RMS force accuracy = 0.0003575219
  estimated relative force accuracy = 1.0766666e-06
  using double precision KISS FFT
  3d grid and FFT values/proc = 100920 46800

next temp
jump SELF minimize_temp

  variable ftemp equal v_temp

  # Minimize top formate
  fix freeze immo_top_fa setforce 0.0 0.0 0.0
  minimize 1.0e-6 1.0e-9 1000 10000
PPPM initialization ...
  using 12-bit tables for long-range coulomb (../kspace.cpp:340)
  G vector (1/distance) = 0.28992484
  grid = 40 40 160
  stencil order = 5
  estimated absolute RMS force accuracy = 0.0003575219
  estimated relative force accuracy = 1.0766666e-06
  using double precision KISS FFT
  3d grid and FFT values/proc = 100920 46800
Per MPI rank memory allocation (min/avg/max) = 12.80 | 14.60 | 19.22 Mbytes
Step Temp PotEng 
  227114            0   -206057.08 
  227136            0   -206098.83 
Loop time of 0.387919 on 20 procs for 22 steps with 1332 atoms

99.5% CPU use with 20 MPI tasks x no OpenMP threads

Minimization stats:
  Stopping criterion = energy tolerance
  Energy initial, next-to-last, final = 
     -206057.075419002  -206098.698114511  -206098.832142181
  Force two-norm initial, final = 121.58844 21.206502
  Force max component initial, final = 46.078611 5.6842519
  Final line search alpha, max atom move = 0.0055636364 0.031625110
  Iterations, force evaluations = 22 43

MPI task timing breakdown:
Section |  min time  |  avg time  |  max time  |%varavg| %total
---------------------------------------------------------------
Pair    | 2.5037e-05 | 0.031955   | 0.11364    |  23.4 |  8.24
Bond    | 4.3924e-05 | 0.00017955 | 0.00042646 |   0.0 |  0.05
Kspace  | 0.26235    | 0.34396    | 0.37659    |   7.1 | 88.67
Neigh   | 0          | 0          | 0          |   0.0 |  0.00
Comm    | 0.0047829  | 0.0075494  | 0.010203   |   2.3 |  1.95
Output  | 0          | 0          | 0          |   0.0 |  0.00
Modify  | 3.883e-05  | 5.7525e-05 | 8.728e-05  |   0.0 |  0.01
Other   |            | 0.004219   |            |       |  1.09

Nlocal:        66.6000 ave         216 max           0 min
Histogram: 8 0 8 0 0 0 0 0 0 4
Nghost:        2081.30 ave        3156 max         852 min
Histogram: 8 0 0 0 0 0 0 0 8 4
Neighs:        27314.1 ave      101363 max           0 min
Histogram: 8 4 4 0 0 0 0 0 0 4
FullNghs:      54629.1 ave      197696 max           0 min
Histogram: 8 8 0 0 0 0 0 0 0 4

Total # of neighbors = 1092582
Ave neighs/atom = 820.25676
Ave special neighs/atom = 0.43243243
Neighbor list builds = 0
Dangerous builds = 0
  min_modify integrator eulerexplicit tmax 10.0 tmin 0.0 delaystep 5           dtgrow 1.1 dtshrink 0.5 alpha0 0.1 alphashrink 0.99           vdfmax 100000 halfstepback no initialdelay no
  unfix freeze

  # Minimize top ho
  fix freeze immo_top_ho setforce 0.0 0.0 0.0
  minimize 1.0e-6 1.0e-9 1000 10000
PPPM initialization ...
  using 12-bit tables for long-range coulomb (../kspace.cpp:340)
  G vector (1/distance) = 0.28992484
  grid = 40 40 160
  stencil order = 5
  estimated absolute RMS force accuracy = 0.0003575219
  estimated relative force accuracy = 1.0766666e-06
  using double precision KISS FFT
  3d grid and FFT values/proc = 100920 46800
Per MPI rank memory allocation (min/avg/max) = 12.80 | 14.60 | 19.22 Mbytes
Step Temp PotEng 
  227136            0   -206098.83 
  227144            0   -206155.65 
Loop time of 0.149443 on 20 procs for 8 steps with 1332 atoms

98.9% CPU use with 20 MPI tasks x no OpenMP threads

Minimization stats:
  Stopping criterion = energy tolerance
  Energy initial, next-to-last, final = 
     -206098.832142181   -206155.44939698  -206155.645760569
  Force two-norm initial, final = 260.15222 15.477879
  Force max component initial, final = 65.706411 4.4861012
  Final line search alpha, max atom move = 0.018657035 0.083697346
  Iterations, force evaluations = 8 16

MPI task timing breakdown:
Section |  min time  |  avg time  |  max time  |%varavg| %total
---------------------------------------------------------------
Pair    | 1.3342e-05 | 0.012393   | 0.043939   |  14.5 |  8.29
Bond    | 1.9844e-05 | 7.0774e-05 | 0.00015897 |   0.0 |  0.05
Kspace  | 0.10053    | 0.13206    | 0.14472    |   4.5 | 88.37
Neigh   | 0          | 0          | 0          |   0.0 |  0.00
Comm    | 0.0018762  | 0.002964   | 0.0040068  |   1.4 |  1.98
Output  | 0          | 0          | 0          |   0.0 |  0.00
Modify  | 1.4634e-05 | 2.2155e-05 | 3.1589e-05 |   0.0 |  0.01
Other   |            | 0.001933   |            |       |  1.29

Nlocal:        66.6000 ave         216 max           0 min
Histogram: 8 0 8 0 0 0 0 0 0 4
Nghost:        2083.40 ave        3160 max         857 min
Histogram: 8 0 0 0 0 0 0 0 8 4
Neighs:        27316.0 ave      101363 max           0 min
Histogram: 8 4 4 0 0 0 0 0 0 4
FullNghs:      54629.1 ave      197696 max           0 min
Histogram: 8 8 0 0 0 0 0 0 0 4

Total # of neighbors = 1092582
Ave neighs/atom = 820.25676
Ave special neighs/atom = 0.43243243
Neighbor list builds = 0
Dangerous builds = 0
  min_modify integrator eulerexplicit tmax 10.0 tmin 0.0 delaystep 5           dtgrow 1.1 dtshrink 0.5 alpha0 0.1 alphashrink 0.99           vdfmax 100000 halfstepback no initialdelay no
  unfix freeze

  # Minimize bottom formate
  fix freeze immo_bottom_fa setforce 0.0 0.0 0.0
  minimize 1.0e-6 1.0e-9 1000 10000
PPPM initialization ...
  using 12-bit tables for long-range coulomb (../kspace.cpp:340)
  G vector (1/distance) = 0.28992484
  grid = 40 40 160
  stencil order = 5
  estimated absolute RMS force accuracy = 0.0003575219
  estimated relative force accuracy = 1.0766666e-06
  using double precision KISS FFT
  3d grid and FFT values/proc = 100920 46800
Per MPI rank memory allocation (min/avg/max) = 12.80 | 14.60 | 19.22 Mbytes
Step Temp PotEng 
  227144            0   -206155.65 
  227187            0   -206283.71 
Loop time of 0.691129 on 20 procs for 43 steps with 1332 atoms

99.4% CPU use with 20 MPI tasks x no OpenMP threads

Minimization stats:
  Stopping criterion = energy tolerance
  Energy initial, next-to-last, final = 
     -206155.645760569  -206283.547080284  -206283.709160486
  Force two-norm initial, final = 179.23027 21.513158
  Force max component initial, final = 61.829364 11.193654
  Final line search alpha, max atom move = 0.012731519 0.14251223
  Iterations, force evaluations = 43 77

MPI task timing breakdown:
Section |  min time  |  avg time  |  max time  |%varavg| %total
---------------------------------------------------------------
Pair    | 4.7443e-05 | 0.056802   | 0.20178    |  31.1 |  8.22
Bond    | 9.1176e-05 | 0.00032831 | 0.0007936  |   0.0 |  0.05
Kspace  | 0.46326    | 0.60816    | 0.66617    |   9.5 | 88.00
Neigh   | 0.0039399  | 0.0039711  | 0.0040016  |   0.0 |  0.57
Comm    | 0.0093645  | 0.014395   | 0.019154   |   3.0 |  2.08
Output  | 0          | 0          | 0          |   0.0 |  0.00
Modify  | 6.4023e-05 | 0.00010342 | 0.00014562 |   0.0 |  0.01
Other   |            | 0.007368   |            |       |  1.07

Nlocal:        66.6000 ave         216 max           0 min
Histogram: 8 0 8 0 0 0 0 0 0 4
Nghost:        2082.35 ave        3163 max         857 min
Histogram: 8 0 0 0 0 0 0 0 8 4
Neighs:        27317.8 ave      101369 max           0 min
Histogram: 8 4 4 0 0 0 0 0 0 4
FullNghs:      54629.1 ave      197696 max           0 min
Histogram: 8 8 0 0 0 0 0 0 0 4

Total # of neighbors = 1092582
Ave neighs/atom = 820.25676
Ave special neighs/atom = 0.43243243
Neighbor list builds = 2
Dangerous builds = 0
  min_modify integrator eulerexplicit tmax 10.0 tmin 0.0 delaystep 5           dtgrow 1.1 dtshrink 0.5 alpha0 0.1 alphashrink 0.99           vdfmax 100000 halfstepback no initialdelay no
  unfix freeze

  # Minimize bottom ho
  fix freeze immo_bottom_ho setforce 0.0 0.0 0.0
  minimize 1.0e-6 1.0e-9 1000 10000
PPPM initialization ...
  using 12-bit tables for long-range coulomb (../kspace.cpp:340)
  G vector (1/distance) = 0.28992484
  grid = 40 40 160
  stencil order = 5
  estimated absolute RMS force accuracy = 0.0003575219
  estimated relative force accuracy = 1.0766666e-06
  using double precision KISS FFT
  3d grid and FFT values/proc = 100920 46800
Per MPI rank memory allocation (min/avg/max) = 12.80 | 14.60 | 19.22 Mbytes
Step Temp PotEng 
  227187            0   -206283.71 
  227195            0   -206390.42 
Loop time of 0.150241 on 20 procs for 8 steps with 1332 atoms

99.2% CPU use with 20 MPI tasks x no OpenMP threads

[...]
 3626000            2            2   -211108.98        26678            0            1          0.7 
 3627000            2            2   -211108.98        27678            0            1          0.7 
 3628000            2            2   -211108.98        28678            0            1          0.7 
 3629000            2            2   -211108.98        29678            0            1          0.7 
 3630000            2            2   -211108.98        30678            0            1          0.7 
 3631000            2            2   -211108.98        31678            0            1          0.7 
 3631722            2            2   -211108.98        32400            0            1          0.7 
Loop time of 1241.64 on 20 procs for 32400 steps with 1332 atoms

Performance: 1.127 ns/day, 21.290 hours/ns, 26.094 timesteps/s
99.4% CPU use with 20 MPI tasks x no OpenMP threads

MPI task timing breakdown:
Section |  min time  |  avg time  |  max time  |%varavg| %total
---------------------------------------------------------------
Pair    | 0.016259   | 15.511     | 55.399     | 515.4 |  1.25
Bond    | 0.02034    | 0.09041    | 0.21271    |  26.3 |  0.01
Kspace  | 192.68     | 232.62     | 248.38     | 133.7 | 18.73
Neigh   | 63.842     | 64.086     | 64.443     |   2.1 |  5.16
Comm    | 11.656     | 13.73      | 15.719     |  41.3 |  1.11
Output  | 0.0040367  | 0.0062609  | 0.011736   |   2.4 |  0.00
Modify  | 913.24     | 915.22     | 916.95     |   4.9 | 73.71
Other   |            | 0.3773     |            |       |  0.03

Nlocal:        66.6000 ave         216 max           0 min
Histogram: 8 0 8 0 0 0 0 0 0 4
Nghost:        2081.75 ave        3155 max         861 min
Histogram: 8 0 0 0 0 0 0 0 8 4
Neighs:        27314.5 ave      101509 max           0 min
Histogram: 8 4 4 0 0 0 0 0 0 4
FullNghs:      54629.1 ave      197696 max           0 min
Histogram: 8 8 0 0 0 0 0 0 0 4

Total # of neighbors = 1092582
Ave neighs/atom = 820.25676
Ave special neighs/atom = 0.43243243
Neighbor list builds = 64800
Dangerous builds = 0

  variable cnum equal (${cnum}-1)
  variable cnum equal (2-1)

  unfix swp
  thermo_style custom step temp pe
  write_data  001-dbt_3x3_${layer}L_fa_${type}_${cnum}_${temp}K.data
  write_data  001-dbt_3x3_17L_fa_${type}_${cnum}_${temp}K.data
  write_data  001-dbt_3x3_17L_fa_tet_full_${cnum}_${temp}K.data
  write_data  001-dbt_3x3_17L_fa_tet_full_1_${temp}K.data
  write_data  001-dbt_3x3_17L_fa_tet_full_1_2K.data
System init for write_data ...
PPPM initialization ...
  using 12-bit tables for long-range coulomb (../kspace.cpp:340)
  G vector (1/distance) = 0.28992484
  grid = 40 40 160
  stencil order = 5
  estimated absolute RMS force accuracy = 0.0003575219
  estimated relative force accuracy = 1.0766666e-06
  using double precision KISS FFT
  3d grid and FFT values/proc = 100920 46800

next temp
jump SELF minimize_temp

  variable ftemp equal v_temp

  # Minimize top formate
  fix freeze immo_top_fa setforce 0.0 0.0 0.0
  minimize 1.0e-6 1.0e-9 1000 10000
PPPM initialization ...
  using 12-bit tables for long-range coulomb (../kspace.cpp:340)
  G vector (1/distance) = 0.28992484
  grid = 40 40 160
  stencil order = 5
  estimated absolute RMS force accuracy = 0.0003575219
  estimated relative force accuracy = 1.0766666e-06
  using double precision KISS FFT
  3d grid and FFT values/proc = 100920 46800
Per MPI rank memory allocation (min/avg/max) = 12.80 | 14.60 | 19.22 Mbytes
Step Temp PotEng 
 3631722            0   -211108.98 
 3631723            0   -211108.98 
Loop time of 0.0270024 on 20 procs for 1 steps with 1332 atoms

99.6% CPU use with 20 MPI tasks x no OpenMP threads

Minimization stats:
  Stopping criterion = energy tolerance
  Energy initial, next-to-last, final = 
     -211108.978616616  -211108.978616616  -211108.979852379
  Force two-norm initial, final = 2.3311795 1.7557831
  Force max component initial, final = 0.69864093 0.50141833
  Final line search alpha, max atom move = 0.14313504 0.071770534
  Iterations, force evaluations = 1 2

MPI task timing breakdown:
Section |  min time  |  avg time  |  max time  |%varavg| %total
---------------------------------------------------------------
Pair    | 5.786e-06  | 0.0021802  | 0.0077948  |   6.1 |  8.07
Bond    | 3.411e-06  | 1.2063e-05 | 2.661e-05  |   0.0 |  0.04
Kspace  | 0.017936   | 0.023554   | 0.025776   |   1.9 | 87.23
Neigh   | 0          | 0          | 0          |   0.0 |  0.00
Comm    | 0.00032668 | 0.00050669 | 0.00067898 |   0.0 |  1.88
Output  | 0          | 0          | 0          |   0.0 |  0.00
Modify  | 2.562e-06  | 3.9423e-06 | 6.164e-06  |   0.0 |  0.01
Other   |            | 0.0007457  |            |       |  2.76

Nlocal:        66.6000 ave         216 max           0 min
Histogram: 8 0 8 0 0 0 0 0 0 4
Nghost:        2081.75 ave        3155 max         861 min
Histogram: 8 0 0 0 0 0 0 0 8 4
Neighs:        27314.5 ave      101509 max           0 min
Histogram: 8 4 4 0 0 0 0 0 0 4
FullNghs:      54629.1 ave      197696 max           0 min
Histogram: 8 8 0 0 0 0 0 0 0 4

Total # of neighbors = 1092582
Ave neighs/atom = 820.25676
Ave special neighs/atom = 0.43243243
Neighbor list builds = 0
Dangerous builds = 0
  min_modify integrator eulerexplicit tmax 10.0 tmin 0.0 delaystep 5           dtgrow 1.1 dtshrink 0.5 alpha0 0.1 alphashrink 0.99           vdfmax 100000 halfstepback no initialdelay no
  unfix freeze

  # Minimize top ho
  fix freeze immo_top_ho setforce 0.0 0.0 0.0
  minimize 1.0e-6 1.0e-9 1000 10000
PPPM initialization ...
  using 12-bit tables for long-range coulomb (../kspace.cpp:340)
  G vector (1/distance) = 0.28992484
  grid = 40 40 160
  stencil order = 5
  estimated absolute RMS force accuracy = 0.0003575219
  estimated relative force accuracy = 1.0766666e-06
  using double precision KISS FFT
  3d grid and FFT values/proc = 100920 46800
Per MPI rank memory allocation (min/avg/max) = 12.80 | 14.60 | 19.22 Mbytes
Step Temp PotEng 
 3631723            0   -211108.98 
 3631724            0   -211108.98 
Loop time of 0.0273723 on 20 procs for 1 steps with 1332 atoms

99.8% CPU use with 20 MPI tasks x no OpenMP threads

Minimization stats:
  Stopping criterion = energy tolerance
  Energy initial, next-to-last, final = 
     -211108.979852379  -211108.979852379  -211108.979885372
  Force two-norm initial, final = 0.41129359 0.47763744
  Force max component initial, final = 0.12291387 0.14531643
  Final line search alpha, max atom move = 0.81357785 0.11822623
  Iterations, force evaluations = 1 2

MPI task timing breakdown:
Section |  min time  |  avg time  |  max time  |%varavg| %total
---------------------------------------------------------------
Pair    | 7.242e-06  | 0.0021677  | 0.0077322  |   6.1 |  7.92
Bond    | 4.44e-06   | 1.3272e-05 | 2.8767e-05 |   0.0 |  0.05
Kspace  | 0.018265   | 0.023831   | 0.026036   |   1.8 | 87.06
Neigh   | 0          | 0          | 0          |   0.0 |  0.00
Comm    | 0.00035282 | 0.00056256 | 0.00076814 |   0.0 |  2.06
Output  | 0          | 0          | 0          |   0.0 |  0.00
Modify  | 3.126e-06  | 4.8864e-06 | 6.405e-06  |   0.0 |  0.02
Other   |            | 0.0007927  |            |       |  2.90

Nlocal:        66.6000 ave         216 max           0 min
Histogram: 8 0 8 0 0 0 0 0 0 4
Nghost:        2081.75 ave        3155 max         861 min
Histogram: 8 0 0 0 0 0 0 0 8 4
Neighs:        27314.5 ave      101509 max           0 min
Histogram: 8 4 4 0 0 0 0 0 0 4
FullNghs:      54629.1 ave      197696 max           0 min
Histogram: 8 8 0 0 0 0 0 0 0 4

Total # of neighbors = 1092582
Ave neighs/atom = 820.25676
Ave special neighs/atom = 0.43243243
Neighbor list builds = 0
Dangerous builds = 0
  min_modify integrator eulerexplicit tmax 10.0 tmin 0.0 delaystep 5           dtgrow 1.1 dtshrink 0.5 alpha0 0.1 alphashrink 0.99           vdfmax 100000 halfstepback no initialdelay no
  unfix freeze

  # Minimize bottom formate
  fix freeze immo_bottom_fa setforce 0.0 0.0 0.0
  minimize 1.0e-6 1.0e-9 1000 10000
PPPM initialization ...
  using 12-bit tables for long-range coulomb (../kspace.cpp:340)
  G vector (1/distance) = 0.28992484
  grid = 40 40 160
  stencil order = 5
  estimated absolute RMS force accuracy = 0.0003575219
  estimated relative force accuracy = 1.0766666e-06
  using double precision KISS FFT
  3d grid and FFT values/proc = 100920 46800
Per MPI rank memory allocation (min/avg/max) = 12.80 | 14.60 | 19.22 Mbytes
Step Temp PotEng 
 3631724            0   -211108.98 
 3631725            0   -211108.98 
Loop time of 0.0270961 on 20 procs for 1 steps with 1332 atoms

99.2% CPU use with 20 MPI tasks x no OpenMP threads

Minimization stats:
  Stopping criterion = energy tolerance
  Energy initial, next-to-last, final = 
     -211108.979885372  -211108.979885372  -211108.981563732
  Force two-norm initial, final = 2.5307107 2.5428634
  Force max component initial, final = 0.86454271 0.55043861
  Final line search alpha, max atom move = 0.11566809 0.063668180
  Iterations, force evaluations = 1 2

MPI task timing breakdown:
Section |  min time  |  avg time  |  max time  |%varavg| %total
---------------------------------------------------------------
Pair    | 6.289e-06  | 0.0021849  | 0.0077401  |   6.1 |  8.06
Bond    | 4.005e-06  | 1.2353e-05 | 2.6439e-05 |   0.0 |  0.05
Kspace  | 0.01808    | 0.023635   | 0.025867   |   1.9 | 87.23
Neigh   | 0          | 0          | 0          |   0.0 |  0.00
Comm    | 0.00031662 | 0.00050508 | 0.00068269 |   0.0 |  1.86
Output  | 0          | 0          | 0          |   0.0 |  0.00
Modify  | 2.589e-06  | 4.2946e-06 | 5.999e-06  |   0.0 |  0.02
Other   |            | 0.0007543  |            |       |  2.78

Nlocal:        66.6000 ave         216 max           0 min
Histogram: 8 0 8 0 0 0 0 0 0 4
Nghost:        2081.75 ave        3155 max         861 min
Histogram: 8 0 0 0 0 0 0 0 8 4
Neighs:        27314.5 ave      101509 max           0 min
Histogram: 8 4 4 0 0 0 0 0 0 4
FullNghs:      54629.1 ave      197696 max           0 min
Histogram: 8 8 0 0 0 0 0 0 0 4

Total # of neighbors = 1092582
Ave neighs/atom = 820.25676
Ave special neighs/atom = 0.43243243
Neighbor list builds = 0
Dangerous builds = 0
  min_modify integrator eulerexplicit tmax 10.0 tmin 0.0 delaystep 5           dtgrow 1.1 dtshrink 0.5 alpha0 0.1 alphashrink 0.99           vdfmax 100000 halfstepback no initialdelay no
  unfix freeze

  # Minimize bottom ho
  fix freeze immo_bottom_ho setforce 0.0 0.0 0.0
  minimize 1.0e-6 1.0e-9 1000 10000
PPPM initialization ...
  using 12-bit tables for long-range coulomb (../kspace.cpp:340)
  G vector (1/distance) = 0.28992484
  grid = 40 40 160
  stencil order = 5
  estimated absolute RMS force accuracy = 0.0003575219
  estimated relative force accuracy = 1.0766666e-06
  using double precision KISS FFT
  3d grid and FFT values/proc = 100920 46800
Per MPI rank memory allocation (min/avg/max) = 12.80 | 14.60 | 19.22 Mbytes
Step Temp PotEng 
 3631725            0   -211108.98 
 3631726            0   -211108.98 
Loop time of 0.0271549 on 20 procs for 1 steps with 1332 atoms

99.0% CPU use with 20 MPI tasks x no OpenMP threads

Minimization stats:
  Stopping criterion = energy tolerance
  Energy initial, next-to-last, final = 
     -211108.981563732  -211108.981563732  -211108.981766035
  Force two-norm initial, final = 0.48515718 0.49577929
  Force max component initial, final = 0.14789960 0.15642470
  Final line search alpha, max atom move = 0.67613437 0.10576412
  Iterations, force evaluations = 1 2

MPI task timing breakdown:
Section |  min time  |  avg time  |  max time  |%varavg| %total
---------------------------------------------------------------
Pair    | 5.944e-06  | 0.0021722  | 0.0077145  |   6.1 |  8.00
Bond    | 3.831e-06  | 1.2073e-05 | 3.4708e-05 |   0.0 |  0.04
Kspace  | 0.01811    | 0.023641   | 0.025853   |   1.8 | 87.06
Neigh   | 0          | 0          | 0          |   0.0 |  0.00
Comm    | 0.0003637  | 0.00055317 | 0.00073617 |   0.0 |  2.04
Output  | 0          | 0          | 0          |   0.0 |  0.00
Modify  | 2.979e-06  | 4.6993e-06 | 7.686e-06  |   0.0 |  0.02
Other   |            | 0.0007713  |            |       |  2.84

Nlocal:        66.6000 ave         216 max           0 min
Histogram: 8 0 8 0 0 0 0 0 0 4
Nghost:        2081.75 ave        3155 max         861 min
Histogram: 8 0 0 0 0 0 0 0 8 4
Neighs:        27314.5 ave      101509 max           0 min
Histogram: 8 4 4 0 0 0 0 0 0 4
FullNghs:      54629.1 ave      197696 max           0 min
Histogram: 8 8 0 0 0 0 0 0 0 4

Total # of neighbors = 1092582
Ave neighs/atom = 820.25676
Ave special neighs/atom = 0.43243243
Neighbor list builds = 0
Dangerous builds = 0
  min_modify integrator eulerexplicit tmax 10.0 tmin 0.0 delaystep 5           dtgrow 1.1 dtshrink 0.5 alpha0 0.1 alphashrink 0.99           vdfmax 100000 halfstepback no initialdelay no
  unfix freeze

  # Electrostatic relaxation
  fix  swp feo atom/swap 1 1 ${rand} ${temp} ke no types 6 7
  fix  swp feo atom/swap 1 1 4097646 ${temp} ke no types 6 7
  fix  swp feo atom/swap 1 1 4097646 1 ke no types 6 7
  thermo 1000
  thermo_style custom step v_ftemp v_cnum pe f_swp[1] f_swp[2] v_rfet3 v_rfeo3
  run ${nsteps}
  run 32400
PPPM initialization ...
  using 12-bit tables for long-range coulomb (../kspace.cpp:340)
  G vector (1/distance) = 0.28992484
  grid = 40 40 160
  stencil order = 5
  estimated absolute RMS force accuracy = 0.0003575219
  estimated relative force accuracy = 1.0766666e-06
  using double precision KISS FFT
  3d grid and FFT values/proc = 100920 46800
Per MPI rank memory allocation (min/avg/max) = 11.68 | 13.48 | 18.09 Mbytes
Step v_ftemp v_cnum PotEng f_swp[1] f_swp[2] v_rfet3 v_rfeo3 
 3631726            1            1   -211108.98            0            0            1          0.7 
 3632000            1            1   -211108.98          274            0            1          0.7 
 3633000            1            1   -211108.98         1274            0            1          0.7 
 3634000            1            1   -211108.98         2274            0            1          0.7 
 3635000            1            1   -211108.98         3274            0            1          0.7 
 3636000            1            1   -211108.98         4274            0            1          0.7 
 3637000            1            1   -211108.98         5274            0            1          0.7 
 3638000            1            1   -211108.98         6274            0            1          0.7 
 3639000            1            1   -211108.98         7274            0            1          0.7 
 3640000            1            1   -211108.98         8274            0            1          0.7 
 3641000            1            1   -211108.98         9274            0            1          0.7 
 3642000            1            1   -211108.98        10274            0            1          0.7 
 3643000            1            1   -211108.98        11274            0            1          0.7 
 3644000            1            1   -211108.98        12274            0            1          0.7 
 3645000            1            1   -211108.98        13274            0            1          0.7 
 3646000            1            1   -211108.98        14274            0            1          0.7 
 3647000            1            1   -211108.98        15274            0            1          0.7 
 3648000            1            1   -211108.98        16274            0            1          0.7 
 3649000            1            1   -211108.98        17274            0            1          0.7 
 3650000            1            1   -211108.98        18274            0            1          0.7 
 3651000            1            1   -211108.98        19274            0            1          0.7 
 3652000            1            1   -211108.98        20274            0            1          0.7 
 3653000            1            1   -211108.98        21274            0            1          0.7 
 3654000            1            1   -211108.98        22274            0            1          0.7 
 3655000            1            1   -211108.98        23274            0            1          0.7 
 3656000            1            1   -211108.98        24274            0            1          0.7 
 3657000            1            1   -211108.98        25274            0            1          0.7 
 3658000            1            1   -211108.98        26274            0            1          0.7 
 3659000            1            1   -211108.98        27274            0            1          0.7 
 3660000            1            1   -211108.98        28274            0            1          0.7 
 3661000            1            1   -211108.98        29274            0            1          0.7 
 3662000            1            1   -211108.98        30274            0            1          0.7 
 3663000            1            1   -211108.98        31274            0            1          0.7 
 3664000            1            1   -211108.98        32274            0            1          0.7 
 3664126            1            1   -211108.98        32400            0            1          0.7 
Loop time of 1240.9 on 20 procs for 32400 steps with 1332 atoms

Performance: 1.128 ns/day, 21.277 hours/ns, 26.110 timesteps/s
99.3% CPU use with 20 MPI tasks x no OpenMP threads

MPI task timing breakdown:
Section |  min time  |  avg time  |  max time  |%varavg| %total
---------------------------------------------------------------
Pair    | 0.017142   | 15.501     | 55.347     | 515.3 |  1.25
Bond    | 0.021049   | 0.091253   | 0.21082    |  26.4 |  0.01
Kspace  | 192.56     | 232.48     | 248.22     | 133.6 | 18.73
Neigh   | 63.864     | 64.118     | 64.474     |   2.1 |  5.17
Comm    | 11.656     | 13.733     | 15.734     |  41.3 |  1.11
Output  | 0.0037946  | 0.0060835  | 0.011788   |   2.5 |  0.00
Modify  | 912.62     | 914.6      | 916.32     |   4.9 | 73.70
Other   |            | 0.3738     |            |       |  0.03

Nlocal:        66.6000 ave         216 max           0 min
Histogram: 8 0 8 0 0 0 0 0 0 4
Nghost:        2081.75 ave        3155 max         861 min
Histogram: 8 0 0 0 0 0 0 0 8 4
Neighs:        27314.5 ave      101509 max           0 min
Histogram: 8 4 4 0 0 0 0 0 0 4
FullNghs:      54629.1 ave      197696 max           0 min
Histogram: 8 8 0 0 0 0 0 0 0 4

Total # of neighbors = 1092582
Ave neighs/atom = 820.25676
Ave special neighs/atom = 0.43243243
Neighbor list builds = 64800
Dangerous builds = 0

  variable cnum equal (${cnum}-1)
  variable cnum equal (1-1)

  unfix swp
  thermo_style custom step temp pe
  write_data  001-dbt_3x3_${layer}L_fa_${type}_${cnum}_${temp}K.data
  write_data  001-dbt_3x3_17L_fa_${type}_${cnum}_${temp}K.data
  write_data  001-dbt_3x3_17L_fa_tet_full_${cnum}_${temp}K.data
  write_data  001-dbt_3x3_17L_fa_tet_full_0_${temp}K.data
  write_data  001-dbt_3x3_17L_fa_tet_full_0_1K.data
System init for write_data ...
PPPM initialization ...
  using 12-bit tables for long-range coulomb (../kspace.cpp:340)
  G vector (1/distance) = 0.28992484
  grid = 40 40 160
  stencil order = 5
  estimated absolute RMS force accuracy = 0.0003575219
  estimated relative force accuracy = 1.0766666e-06
  using double precision KISS FFT
  3d grid and FFT values/proc = 100920 46800

next temp
jump SELF minimize_temp

write_data  001-dbt_3x3_${layer}L_fa_${type}_qeq.data
write_data  001-dbt_3x3_17L_fa_${type}_qeq.data
write_data  001-dbt_3x3_17L_fa_tet_full_qeq.data
System init for write_data ...
PPPM initialization ...
  using 12-bit tables for long-range coulomb (../kspace.cpp:340)
  G vector (1/distance) = 0.28992484
  grid = 40 40 160
  stencil order = 5
  estimated absolute RMS force accuracy = 0.0003575219
  estimated relative force accuracy = 1.0766666e-06
  using double precision KISS FFT
  3d grid and FFT values/proc = 100920 46800

Total wall time: 39:01:54
