LAMMPS data file via write_data, version 17 Feb 2022, timestep = 28

2970 atoms
10 atom types
72 bonds
6 bond types
108 angles
6 angle types
0 dihedrals
2 dihedral types
18 impropers
2 improper types

0 25.44 xlo xhi
0 25.44 ylo yhi
-41.458422 32.908 zlo zhi

Masses

1 12.011
2 1.008
3 15.9994
4 15.9994
5 1.008
6 55.845
7 55.845
8 15.9994
9 15.9994
10 1.008

Pair Coeffs # lj/cut/coul/long

1 0.0988 3.31521
2 0.0161 2.4473
3 0.1463 3.04812
4 0.093 3.24287
5 0.0047 0.537925
6 9.0298e-07 4.9062
7 9.0298e-07 4.9062
8 0.1554 3.16554
9 0.1554 3.16554
10 0 0

Bond Coeffs # harmonic

1 361.8 1.105
2 652.57 1.218
3 383.13 1.351
4 563.51 0.973
5 554.135 1
6 0 2.08

Angle Coeffs # harmonic

1 51.617 106.55
2 65.93 123.65
3 65.262 109.49
4 115.745 122.1
5 118.817 130.25
6 30 109.47

Dihedral Coeffs # fourier

1 1 2.3 2 180
2 2 2.3 2 180 1.9 1 0

Improper Coeffs # cvff

1 10.5 -1 2
2 10.5 -1 2

Atoms # full

9 0 7 1.575 2.2125227179225835 3.3996972004697934 -29.36300109784806 0 0 0
79 0 7 1.575 6.446571259238504 7.641494485896125 -29.374527458387902 0 0 0
2 0 7 1.575 0.09196561048675606 1.2850625064130854 -29.364581530663504 0 0 0
72 0 7 1.575 4.335799566990798 5.528042547500207 -29.360960840289916 0 0 0
12 0 8 -1.05 4.202298928046446 3.5491333989285594 -29.396459358421826 0 0 0
75 0 8 -1.05 4.499736074689148 7.49327310874972 -29.426537274286115 0 0 0
6 0 8 -1.05 2.068515400348561 1.4268208592935507 -29.400665213945953 0 0 0
68 0 8 -1.05 2.3575906560852955 5.389694614345702 -29.351663603444884 0 0 0
76 0 8 -1.05 6.31680879819627 5.678974192337609 -29.40596605596192 0 0 0
5 0 8 -1.05 0.2586039274847788 3.243684419197775 -29.43229955420907 0 0 0
18 0 8 -1.05 6.5934442795966515 1.1485502788334891 -29.38085473748611 0 0 0
62 0 8 -1.05 25.393675277761204 7.789665181559616 -29.33489987125217 -1 0 0
15 0 7 1.575 5.364429471693629 2.3367161268053454 -28.51711718521988 0 0 0
65 0 7 1.575 1.1347785328827802 6.5597878969299455 -28.48162236732445 0 0 0
78 0 6 1.05 6.481015807657058 5.511958945467986 -27.39827695898622 0 0 0
3 0 6 1.05 0.03385295429555402 3.447153943945112 -27.44390576410824 0 0 0
73 0 6 1.05 4.280291593247031 7.681595315310686 -27.436664420117825 0 0 0
8 0 6 1.05 2.2423541005049836 1.2677977032240442 -27.394203623332864 0 0 0
7 0 8 -1.05 2.166890250968693 3.3479700255430282 -27.315505997529705 0 0 0
74 0 8 -1.05 4.403752870833285 5.581292684432021 -27.312385502308793 0 0 0
69 0 8 -1.05 2.1898298371204645 7.636390223223033 -27.174885102609956 0 0 0
4 0 8 -1.05 0.15472310394904007 1.331701849718378 -27.319222683934118 0 0 0
19 0 8 -1.05 6.524659484946067 3.349863366822376 -27.23452009858548 0 0 0
77 0 8 -1.05 6.4261037739254725 7.606413752379753 -27.343116687293985 0 0 0
11 0 8 -1.05 4.367918911308655 1.1944365608600318 -27.27206734071359 0 0 0
61 0 8 -1.05 0.09182581525182812 5.535858942649805 -27.16199745614493 0 0 0
82 0 8 -1.05 8.444137033616652 7.80315211028823 -29.423948414923675 0 0 0
29 0 7 1.575 10.692707489653694 3.4103452753912684 -29.42488751625832 0 0 0
22 0 7 1.575 8.551270835487015 1.273775016931246 -29.42664852401019 0 0 0
26 0 8 -1.05 10.531801341677328 1.4366158759457575 -29.323315971057283 0 0 0
88 0 8 -1.05 10.826670113448824 5.384742982889998 -29.40277540019308 0 0 0
25 0 8 -1.05 8.732634069916132 3.2407190831120483 -29.325394307990013 0 0 0
81 0 8 -1.05 8.624478051596489 5.430960667154225 -27.304827790692308 0 0 0
85 0 7 1.575 9.605005234085837 6.580223568699574 -28.54675644807654 0 0 0
23 0 7 1.575 8.51833705758842 3.45226717865077 -27.392054096029142 0 0 0
28 0 7 1.575 10.718138999938308 1.241643039373484 -27.37908391272361 0 0 0
27 0 8 -1.05 10.606195919592738 3.3066377535209286 -27.331312329113402 0 0 0
89 0 8 -1.05 10.738094008648787 7.700779838838134 -27.3346739849966 0 0 0
24 0 8 -1.05 8.670463835226714 1.373394569715058 -27.32985815961685 0 0 0
99 0 7 1.575 14.93033880076682 7.647089317678229 -29.412813716430957 0 0 0
92 0 7 1.575 12.78985478731974 5.512693023781546 -29.420312606808604 0 0 0
32 0 8 -1.05 12.657471767540077 3.541985637077481 -29.39754039587133 0 0 0
95 0 8 -1.05 12.949523345549789 7.492676303646759 -29.311796575043715 0 0 0
96 0 8 -1.05 14.748796506625482 5.688367306347808 -29.318112316142447 0 0 0
38 0 8 -1.05 15.039657930600415 1.1191019171081384 -29.430295269210344 0 0 0
35 0 7 1.575 13.87449047737314 2.3328250514997952 -28.548070886613324 0 0 0
98 0 7 1.575 14.958149656013468 5.463020421485296 -27.38567068130549 0 0 0
93 0 7 1.575 12.758685583961741 7.670572901348601 -27.36381979529421 0 0 0
94 0 8 -1.05 12.871756042249283 5.618057780837129 -27.324113969793107 0 0 0
39 0 8 -1.05 14.848980811398372 3.4890913332245614 -27.30331076359612 0 0 0
97 0 8 -1.05 14.811022810449916 7.5636434485646 -27.327900816113765 0 0 0
31 0 8 -1.05 12.738335949094763 1.216334234511838 -27.343755709791647 0 0 0
51 0 8 -1.05 21.284580813107894 1.283730361362494 -27.18231101667445 0 0 0
117 0 8 -1.05 23.347414388540212 7.619991924911017 -27.32711025418468 0 0 0
59 0 8 -1.05 23.385026122661362 3.3922224074319822 -27.179132482789903 0 0 0
44 0 8 -1.05 17.048054139225822 1.3227141547754437 -27.340360445529658 0 0 0
109 0 8 -1.05 19.104481267977153 7.733903492940173 -27.229457884863947 0 0 0
114 0 8 -1.05 21.320244843174702 5.604824660184397 -27.32113530917307 0 0 0
47 0 8 -1.05 19.06957685504229 3.3514008463384948 -27.317296814328245 0 0 0
48 0 6 1.05 19.205768938607566 1.2342489657249371 -27.447178554767607 0 0 0
113 0 6 1.05 21.27695210791163 7.6866451236111235 -27.39970744734719 0 0 0
43 0 6 1.05 16.994362684141226 3.402502791337549 -27.393568556229084 0 0 0
118 0 6 1.05 23.44695737017736 5.476329304848474 -27.442773011455273 0 0 0
105 0 7 1.575 18.117263527880507 6.569921206743205 -28.499382369196354 0 0 0
55 0 7 1.575 22.34396519313116 2.3357602511922453 -28.492519773001654 0 0 0
101 0 8 -1.05 16.947938454463554 5.575951590078649 -27.231083318083588 0 0 0
58 0 8 -1.05 23.5460815378595 1.136509837958398 -29.35616228191955 0 0 0
45 0 8 -1.05 17.162304267435804 3.2582996125060215 -29.402405633525127 0 0 0
116 0 8 -1.05 23.235636238985325 5.697197675103173 -29.431713239323095 0 0 0
108 0 8 -1.05 19.289431101986168 5.38579162495432 -29.396418584412952 0 0 0
46 0 8 -1.05 18.980403288624185 1.4469843133157847 -29.43586467568762 0 0 0
115 0 8 -1.05 21.41961097472902 7.507588295020955 -29.406291515549203 0 0 0
52 0 8 -1.05 21.131557920119935 3.542760809321889 -29.33553295909829 0 0 0
112 0 7 1.575 21.281359249213924 5.5277126166794055 -29.36316272063959 0 0 0
42 0 7 1.575 17.03821197063403 1.284584571534592 -29.375142105417556 0 0 0
119 0 7 1.575 23.39747723987139 7.645848473487628 -29.36828662731615 0 0 0
49 0 7 1.575 19.149086637941757 3.4011048834334714 -29.36166422388442 0 0 0
102 0 8 -1.05 16.895810135544018 7.779269478429031 -29.34853197607067 0 0 0
138 0 8 -1.05 6.597560296059653 9.642529783365411 -29.377936306987692 0 0 0
129 0 7 1.575 2.2101733547403097 11.893805113478498 -29.39519419823728 0 0 0
122 0 7 1.575 0.08626624587853436 9.754563971576582 -29.40273390733646 0 0 0
132 0 8 -1.05 4.192042115423453 12.03157375242266 -29.381784853188922 0 0 0
126 0 8 -1.05 2.0366987250998427 9.952294124246524 -29.454366430287028 0 0 0
125 0 8 -1.05 0.2276196481920593 11.754344201662912 -29.30337491568107 0 0 0
131 0 8 -1.05 4.333468231372513 9.800798850580327 -27.187818621039664 0 0 0
135 0 7 1.575 5.3684127259253 10.812091003457187 -28.5107081235444 0 0 0
123 0 7 1.575 0.06153578694065358 11.902582707270337 -27.354934003267996 0 0 0
128 0 6 1.05 2.2585223975628397 9.689121918367185 -27.469885232064414 0 0 0
127 0 8 -1.05 2.0958273583169675 11.857621376712892 -27.330223918608226 0 0 0
124 0 8 -1.05 0.12434410919789889 9.887519284392402 -27.32308066804939 0 0 0
139 0 8 -1.05 6.511526852677798 11.932870142939521 -27.299022179950963 0 0 0
199 0 7 1.575 6.446441327730998 16.129079429427055 -29.371161574754243 0 0 0
192 0 7 1.575 4.321568661399567 14.002476896046238 -29.375454579402138 0 0 0
195 0 8 -1.05 4.498377645434485 15.951201986086646 -29.3946537474294 0 0 0
188 0 8 -1.05 2.3489518066765687 13.872160976715206 -29.375509947968897 0 0 0
196 0 8 -1.05 6.311662469627538 14.145419401373742 -29.285428012492773 0 0 0
182 0 8 -1.05 25.391682194003646 16.26077457048657 -29.4043469841204 -1 0 0
185 0 7 1.575 1.122092409337146 15.044780247045356 -28.514128443463484 0 0 0
198 0 7 1.575 6.467589308292871 13.972210461024845 -27.340432045261643 0 0 0
193 0 6 1.05 4.291640066803033 16.163920901052528 -27.389613319265074 0 0 0
194 0 8 -1.05 4.438383359322285 14.023007560175072 -27.308317522185064 0 0 0
189 0 8 -1.05 2.150171693249884 16.181984193209708 -27.237580185042255 0 0 0
197 0 8 -1.05 6.424343984964588 16.010380198404942 -27.304540087487197 0 0 0
181 0 8 -1.05 0.019245250179844728 13.938092518558124 -27.30199580042021 0 0 0
149 0 7 1.575 10.69053837747612 11.895539483515575 -29.4036525841885 0 0 0
142 0 7 1.575 8.550319146727823 9.759226199857245 -29.41953400456171 0 0 0
146 0 8 -1.05 10.531033598513615 9.92511966959263 -29.30125997574652 0 0 0
145 0 8 -1.05 8.727241578710805 11.729206447984756 -29.291466539216774 0 0 0
143 0 7 1.575 8.519632781958745 11.909273731444491 -27.346995892783063 0 0 0
148 0 7 1.575 10.710566806141818 9.725278933484974 -27.35730140030524 0 0 0
147 0 8 -1.05 10.59942243662446 11.792527950142293 -27.303890921647916 0 0 0
144 0 8 -1.05 8.663246072910603 9.853022890319025 -27.309024290922995 0 0 0
202 0 8 -1.05 8.425751336758871 16.2546491980235 -29.364910212120407 0 0 0
208 0 8 -1.05 10.817145303979029 13.856449758268885 -29.38296605741886 0 0 0
201 0 8 -1.05 8.515149480295596 13.920221094342415 -27.2989454086845 0 0 0
205 0 7 1.575 9.622584760124647 15.055947546248328 -28.501288127071557 0 0 0
209 0 8 -1.05 10.742018861747823 16.074029533245977 -27.224437907942843 0 0 0
158 0 8 -1.05 15.0592456855996 9.617466783507272 -29.391518928060023 0 0 0
152 0 8 -1.05 12.655639339599492 12.01312237968049 -29.35909083763144 0 0 0
151 0 8 -1.05 12.736296639254965 9.69747805876566 -27.319371831478154 0 0 0
155 0 7 1.575 13.870230890306628 10.820353270598806 -28.50974042658236 0 0 0
159 0 8 -1.05 14.991462611407512 11.835651088903278 -27.23708304240991 0 0 0
219 0 7 1.575 14.931388308923816 16.115598157432004 -29.385905644521905 0 0 0
212 0 7 1.575 12.800815735254846 13.995490274168388 -29.37998952620522 0 0 0
215 0 8 -1.05 12.942575745096905 15.96490246631394 -29.303065715653453 0 0 0
216 0 8 -1.05 14.748293734862678 14.15320000267516 -29.40688479388338 0 0 0
218 0 6 1.05 14.984450575399055 13.97474813616714 -27.402110538199153 0 0 0
213 0 7 1.575 12.77645637698704 16.161001549760684 -27.369717017982172 0 0 0
214 0 8 -1.05 12.830174209061536 14.094341500580963 -27.32314537063146 0 0 0
217 0 8 -1.05 14.80600654820817 16.071654873541213 -27.29778094122276 0 0 0
179 0 8 -1.05 23.466329973555293 11.941395359907395 -27.32183032076298 0 0 0
164 0 8 -1.05 17.125411784744163 9.863639279634604 -27.33508041077519 0 0 0
167 0 8 -1.05 19.059371049062698 11.7862248945703 -27.309307458047158 0 0 0
168 0 7 1.575 19.228424841764863 9.726601842356066 -27.391488027826824 0 0 0
163 0 7 1.575 17.014522676318155 11.93526159429745 -27.38524625886774 0 0 0
175 0 7 1.575 22.3672084666119 10.823958209854323 -28.55170084008911 0 0 0
171 0 8 -1.05 21.202570639084986 9.830695824418738 -27.312470475402897 0 0 0
165 0 8 -1.05 17.191342566921378 11.722488054099133 -29.322336729375582 0 0 0
166 0 8 -1.05 18.994737919006578 9.924682694567126 -29.323354100080692 0 0 0
172 0 8 -1.05 21.14337947762455 12.014451359199132 -29.416583463405686 0 0 0
162 0 7 1.575 17.036927777134117 9.74854741070785 -29.41730121155714 0 0 0
169 0 7 1.575 19.177220416386607 11.890747259669768 -29.425585759953886 0 0 0
178 0 8 -1.05 23.556475844418976 9.635969186785982 -29.43914661645153 0 0 0
237 0 8 -1.05 23.38493704023469 16.00099397805088 -27.33609929459062 0 0 0
229 0 8 -1.05 19.1618746190143 16.096783449572907 -27.197142144912338 0 0 0
234 0 8 -1.05 21.397397213504245 14.021744199696961 -27.343619114684937 0 0 0
233 0 6 1.05 21.22526638073312 16.18571438776696 -27.47767952178068 0 0 0
238 0 7 1.575 23.42871776047575 13.969202830707768 -27.359670606100806 0 0 0
225 0 7 1.575 18.122731650318745 15.0778937931604 -28.512192883327675 0 0 0
221 0 8 -1.05 17.07414136872462 13.914746883144025 -27.29487361011683 0 0 0
236 0 8 -1.05 23.276259964938305 14.134788087745857 -29.3093851440131 0 0 0
228 0 8 -1.05 19.306643441934913 13.85056357763405 -29.370334479783892 0 0 0
235 0 8 -1.05 21.465105000683877 15.931635374074425 -29.463446890410562 0 0 0
232 0 7 1.575 21.290780121629034 13.988660246308973 -29.4038993623862 0 0 0
239 0 7 1.575 23.40939274097714 16.12002835835067 -29.39798647228214 0 0 0
222 0 8 -1.05 16.89358649179146 16.248835226532172 -29.3664210677289 0 0 0
258 0 8 -1.05 6.590812464058965 18.100888622119985 -29.374982636118578 0 0 0
249 0 7 1.575 2.216076695190692 20.372822475623284 -29.419537844149477 0 0 0
319 0 7 1.575 6.448411528532069 24.60589510881463 -29.38588143786207 0 0 0
242 0 7 1.575 0.07053423582719476 18.230013474876962 -29.4221050460083 0 0 0
312 0 7 1.575 4.327410982144048 22.48278258982263 -29.38866899440545 0 0 0
252 0 8 -1.05 4.185583816259115 20.501889970145946 -29.379246234848868 0 0 0
315 0 8 -1.05 4.4780942420342615 24.454327145257853 -29.308765387519543 0 0 0
246 0 8 -1.05 2.0488968746520873 18.390242162574726 -29.326081686536515 0 0 0
308 0 8 -1.05 2.345871730177941 22.338005915084047 -29.361566425482568 0 0 0
316 0 8 -1.05 6.285422377878798 22.64951107693937 -29.42615236275539 0 0 0
245 0 8 -1.05 0.25302031565998767 20.194690223197654 -29.3235375651872 0 0 0
302 0 8 -1.05 25.39360926002506 24.7354164538198 -29.386644959093676 -1 0 0
251 0 8 -1.05 4.244190469563617 18.260987629371925 -27.302382796215536 0 0 0
255 0 7 1.575 5.392555444391575 19.30706649584091 -28.515741618440668 0 0 0
305 0 7 1.575 1.1473007262131363 23.559582219161165 -28.501150785096442 0 0 0
318 0 6 1.05 6.498675245995681 22.454155044908227 -27.414337056486193 0 0 0
243 0 7 1.575 0.025246682119333848 20.40478701297366 -27.393937215377868 0 0 0
313 0 7 1.575 4.2967373047689845 24.646248928691705 -27.37233652791202 0 0 0
248 0 7 1.575 2.253033042270027 18.19910297257446 -27.391678437045428 0 0 0
247 0 8 -1.05 2.1134187205131396 20.25126524666179 -27.320339392736855 0 0 0
314 0 8 -1.05 4.3779493672493786 22.585007181217993 -27.334546493017545 0 0 0
309 0 8 -1.05 2.2886263201477983 24.554570402822364 -27.214257746081667 0 0 0
244 0 8 -1.05 0.1876835776923748 18.32773311820425 -27.31719069967062 0 0 0
259 0 8 -1.05 6.513254871212726 20.331978776870862 -27.235863365017497 0 0 0
317 0 8 -1.05 6.3528995252242675 24.56388271686267 -27.322519974578878 0 0 0
301 0 8 -1.05 0.14247268317738795 22.396602513930247 -27.226743447345385 0 0 0
322 0 8 -1.05 8.432183455669309 24.750118214943946 -29.388980159157576 0 0 0
269 0 7 1.575 10.695158342749302 20.348134404837356 -29.38542679097923 0 0 0
262 0 7 1.575 8.566534181431388 18.230785127505058 -29.387346547803073 0 0 0
264 0 8 -1.05 8.607421600485184 18.355435289508566 -27.328350007093007 0 0 0
266 0 8 -1.05 10.516227508038961 18.398730802700342 -29.413048063159298 0 0 0
329 0 8 -1.05 10.742540431087686 24.658437443520317 -27.345450958547872 0 0 0
328 0 8 -1.05 10.829000397955562 22.334001486905663 -29.424286105341135 0 0 0
267 0 8 -1.05 10.579293573708279 20.332805767362487 -27.316521648902725 0 0 0
268 0 6 1.05 10.738716306928128 18.206794038910598 -27.406187259480063 0 0 0
265 0 8 -1.05 8.71336166681202 20.212408843733073 -29.31502550410514 0 0 0
263 0 7 1.575 8.53842171596912 20.405031924355217 -27.379345632600007 0 0 0
321 0 8 -1.05 8.593479347487456 22.407030935036698 -27.310901330593737 0 0 0
325 0 7 1.575 9.621930791705193 23.52315160683221 -28.547636313569164 0 0 0
278 0 8 -1.05 15.049515474343629 18.086248279838202 -29.405649566465165 0 0 0
339 0 7 1.575 14.939529892590624 24.59841375075095 -29.430776377212673 0 0 0
332 0 7 1.575 12.79247944654385 22.461225660934073 -29.420869579667663 0 0 0
337 0 8 -1.05 14.809119192553345 24.502262531362945 -27.308824941190778 0 0 0
272 0 8 -1.05 12.667928843553858 20.495958682875877 -29.34769407650934 0 0 0
335 0 8 -1.05 12.952839256975693 24.44012283279174 -29.31821438918194 0 0 0
279 0 8 -1.05 14.863623899627116 20.43925513733762 -27.220518051676102 0 0 0
336 0 8 -1.05 14.749422808403242 22.63181978266051 -29.318860689199536 0 0 0
334 0 8 -1.05 12.876243252036627 22.5793487247513 -27.326557055130827 0 0 0
333 0 7 1.575 12.769684038238555 24.630229426488125 -27.374198169734978 0 0 0
271 0 8 -1.05 12.819453810250097 18.15924226810813 -27.285724735318713 0 0 0
275 0 7 1.575 13.882906472655463 19.28721469830397 -28.504993128971115 0 0 0
338 0 7 1.575 14.979431006760887 22.43764772645523 -27.387807484293223 0 0 0
357 0 8 -1.05 23.349772748111917 24.52688032054067 -27.32388673002207 0 0 0
299 0 8 -1.05 23.49378088271414 20.31088985183157 -27.2849934815599 0 0 0
284 0 8 -1.05 17.075911544667026 18.295592678655552 -27.337744638187996 0 0 0
349 0 8 -1.05 19.1328711214338 24.588625855418652 -27.187394244301448 0 0 0
354 0 8 -1.05 21.332437522851745 22.520126686494315 -27.334495451610177 0 0 0
287 0 8 -1.05 19.10505538471617 20.302598383172302 -27.31968273970785 0 0 0
288 0 6 1.05 19.199855117733705 18.2069851379903 -27.436022092700956 0 0 0
353 0 6 1.05 21.234431484291918 24.64366727439512 -27.466549582993157 0 0 0
283 0 6 1.05 17.034686772160217 20.403815729378902 -27.400148989067386 0 0 0
358 0 6 1.05 23.409558004835596 22.442120209164017 -27.398909148575814 0 0 0
345 0 7 1.575 18.12729938300443 23.549730563964797 -28.51779412473302 0 0 0
295 0 7 1.575 22.32627728549486 19.306142644423076 -28.518888737123202 0 0 0
291 0 8 -1.05 21.308862693881103 18.24304258972382 -27.200415880319905 0 0 0
341 0 8 -1.05 16.949443209018188 22.52532011981493 -27.282494323240034 0 0 0
285 0 8 -1.05 17.17528091139739 20.2071400915979 -29.40544545749115 0 0 0
356 0 8 -1.05 23.265827477757107 22.6129959319297 -29.405465094933813 0 0 0
348 0 8 -1.05 19.297330686474336 22.33555293089864 -29.393711854877214 0 0 0
286 0 8 -1.05 18.993522770835966 18.392954302050885 -29.43087754527537 0 0 0
355 0 8 -1.05 21.447708772080066 24.422934429189205 -29.452127771425715 0 0 0
292 0 8 -1.05 21.135235316466694 20.486364536663633 -29.407665866314446 0 0 0
352 0 7 1.575 21.290581262687937 22.46856435187649 -29.38205775362613 0 0 0
282 0 7 1.575 17.03913240516878 18.245104817515266 -29.37077241350716 0 0 0
359 0 7 1.575 23.406506656453292 24.590185974819633 -29.369802012262085 0 0 0
289 0 7 1.575 19.15071293364226 20.36008911239758 -29.371593699721757 0 0 0
298 0 8 -1.05 23.54838696714748 18.094788941482143 -29.357839715296237 0 0 0
342 0 8 -1.05 16.890141589193597 24.728027799212764 -29.37609542627242 0 0 0
70 0 7 1.575 3.2511549763350405 4.490190519065265 -26.271560317582612 0 0 0
71 0 8 -1.05 4.2089200726004625 7.760934056461663 -25.10365292486275 0 0 0
80 0 8 -1.05 6.523815248811779 5.374457681065565 -25.158069869816796 0 0 0
364 0 7 1.575 1.148884889914787 2.3388461950444412 -24.199281074802535 0 0 0
416 0 7 1.575 7.486072660383539 4.476409016363862 -22.060922786209968 0 0 0
412 0 7 1.575 5.394790501627596 6.570985612822331 -24.20155889114396 0 0 0
13 0 6 1.05 4.331013112183934 1.3018089369651853 -25.24313420576092 0 0 0
366 0 6 1.05 2.1679637502259417 3.403655498828791 -21.00176228229883 0 0 0
414 0 6 1.05 6.433942935078382 7.62927673275037 -20.978099234128784 0 0 0
407 0 6 1.05 2.1912450200590237 5.5095129613217 -23.075337810597404 0 0 0
404 0 6 1.05 0.059557392062292144 7.638349511968281 -23.073418008090357 0 0 0
63 0 7 1.575 0.08600052559648189 5.527906590463881 -25.208879126796973 0 0 0
370 0 7 1.575 4.311062046710414 3.4058082734392716 -23.10914720411144 0 0 0
373 0 6 1.05 6.463870675916602 1.2798879405851955 -23.095117611593498 0 0 0
362 0 7 1.575 0.09133347035245987 1.2942452610470923 -20.99810971035898 0 0 0
17 0 7 1.575 6.423888430282876 3.388416007527495 -25.25742118252247 0 0 0
67 0 7 1.575 2.1901807270748677 7.626214287547511 -25.21179874115876 0 0 0
410 0 7 1.575 4.338288545870485 5.538247908301847 -20.990455450004823 0 0 0
16 0 8 -1.05 6.4454308656638055 1.385563685811179 -25.12238596135097 0 0 0
369 0 8 -1.05 4.302352891524614 3.5240632212865406 -20.98275706978599 0 0 0
411 0 8 -1.05 4.30350404986751 7.577283036489843 -20.84004980682569 0 0 0
405 0 8 -1.05 0.12823597884170518 5.579804741168911 -23.089140185262337 0 0 0
415 0 8 -1.05 6.5460548954364395 7.625475264832425 -23.014450221187403 0 0 0
64 0 8 -1.05 0.16147732010837196 7.579547156160346 -25.115150815024656 0 0 0
409 0 8 -1.05 4.347971681448884 5.4546170285571725 -22.95906869806782 0 0 0
365 0 8 -1.05 2.1304740002084905 1.251218992489842 -20.831774859795825 0 0 0
372 0 8 -1.05 6.345087502832422 3.3753982110857934 -23.114903995471703 0 0 0
408 0 8 -1.05 2.347703264664941 5.471492678821262 -20.889103779326323 0 0 0
413 0 8 -1.05 6.352739056886637 5.5350883571093865 -20.886335182707164 0 0 0
14 0 8 -1.05 4.404738017104825 3.4338477618910646 -25.0780489150668 0 0 0
406 0 8 -1.05 2.1470466749788772 7.597774004418833 -23.107521587399525 0 0 0
371 0 8 -1.05 4.396872583156973 1.4191508620386921 -22.992330546389258 0 0 0
363 0 8 -1.05 0.0629339633234114 3.299227860844364 -20.893283864808804 0 0 0
66 0 8 -1.05 2.135821440522514 5.598480191465367 -25.114047085360944 0 0 0
367 0 8 -1.05 2.312222811483287 3.398333562380362 -23.03153735399969 0 0 0
10 0 8 -1.05 2.271349685155241 1.129069337715753 -25.13851123637116 0 0 0
374 0 8 -1.05 6.495904882570122 1.13791259462905 -20.89339916027983 0 0 0
1 0 8 -1.05 25.40312821394217 3.519925038067728 -25.102734346625926 -1 0 0
403 0 8 -1.05 0.031246422618792985 7.784792864670303 -20.88907508293835 0 0 0
361 0 8 -1.05 0.09561010090645299 1.266276800962135 -22.946402725364035 0 0 0
622 0 7 1.575 5.379066834267772 2.343361651597566 -19.94218973201564 0 0 0
658 0 7 1.575 1.1399101464624166 6.57811123416883 -19.931241903926757 0 0 0
20 0 7 1.575 7.4928312923072955 0.25436832056672476 -26.293613941934904 0 0 0
368 0 7 1.575 3.2484904628753513 0.2199322551504975 -22.074267599086028 0 0 0
21 0 8 -1.05 8.464506517002132 3.4232691532570874 -25.279496618083527 0 0 0
417 0 8 -1.05 8.544971293846098 7.752370935626431 -20.979850175951277 0 0 0
375 0 8 -1.05 8.597392062524136 1.1910470074143755 -23.028343945486093 0 0 0
90 0 7 1.575 11.74033549751933 4.4550282576722875 -26.28653463024548 0 0 0
378 0 7 1.575 9.62804912390972 2.3319359709211818 -24.221545926860436 0 0 0
380 0 6 1.05 10.655976055979695 3.37692077628797 -21.005676516832597 0 0 0
421 0 7 1.575 10.69135284603871 5.502003927308961 -23.093131063251683 0 0 0
418 0 7 1.575 8.550489133773809 7.637707949587282 -23.104414641936607 0 0 0
83 0 6 1.05 8.577194668524035 5.561540010623152 -25.2821373249141 0 0 0
376 0 6 1.05 8.56784105015402 1.3074942023755116 -21.006894636218792 0 0 0
87 0 6 1.05 10.659042594381184 7.611958540108385 -25.270543462283655 0 0 0
419 0 8 -1.05 8.687008375936053 5.62686782099161 -23.000218750153618 0 0 0
84 0 8 -1.05 8.580540971454543 7.66014777393028 -25.057889993555968 0 0 0
379 0 8 -1.05 10.665090550524663 1.274958942392565 -20.801584188050384 0 0 0
422 0 8 -1.05 10.745621492821309 5.468727281936164 -21.019913743329997 0 0 0
420 0 8 -1.05 10.590374115820286 7.5269080181043115 -23.02317039986412 0 0 0
377 0 8 -1.05 8.553907482119854 3.4086788213874097 -20.82425790102145 0 0 0
86 0 8 -1.05 10.677269260965346 5.520459647796338 -25.057565842929293 0 0 0
381 0 8 -1.05 10.74241860182323 3.4552893350618175 -23.056551234771593 0 0 0
30 0 8 -1.05 10.734597879912647 1.2351108669730053 -25.32461445598674 0 0 0
672 0 7 1.575 9.632996211326027 6.570843271050086 -19.945073345869375 0 0 0
382 0 7 1.575 11.7330973525046 0.2213849493799211 -22.042654005102833 0 0 0
91 0 8 -1.05 12.751098187955977 7.670631759249864 -25.307295108480513 0 0 0
100 0 8 -1.05 15.017692012158404 5.505613172710552 -25.291442492465404 0 0 0
430 0 7 1.575 15.991962305566382 4.4512594971201915 -22.09961928183317 0 0 0
426 0 7 1.575 13.844909751333253 6.556165686931671 -24.20636943832613 0 0 0
33 0 6 1.05 12.826830992132415 1.2955825435116792 -25.282015065914518 0 0 0
428 0 7 1.575 14.917976646936337 7.612040218643564 -21.010004306594002 0 0 0
384 0 7 1.575 12.78620445641083 3.392444974877471 -23.096915624685053 0 0 0
387 0 7 1.575 14.918665057150067 1.2697519767419208 -23.101963152114067 0 0 0
37 0 6 1.05 14.908450423802206 3.3465313362082627 -25.28258821272481 0 0 0
424 0 6 1.05 12.82836549586238 5.500554478320559 -20.98162543167773 0 0 0
36 0 8 -1.05 14.912489072445092 1.2578219470326681 -25.06711671107229 0 0 0
383 0 8 -1.05 12.740741479006939 3.4328611701948732 -21.021585233092818 0 0 0
425 0 8 -1.05 12.887357004405198 7.6535267286938105 -20.839342472171776 0 0 0
429 0 8 -1.05 14.882467788150553 7.642949723122302 -22.967365906621083 0 0 0
423 0 8 -1.05 12.727366975704886 5.440883141452624 -23.044617995806185 0 0 0
386 0 8 -1.05 14.794862055207389 3.287633796951804 -23.028273642513398 0 0 0
427 0 8 -1.05 14.940754647982253 5.609674372369739 -20.928733697066175 0 0 0
34 0 8 -1.05 12.805233997183178 3.394100497782672 -25.060729638304164 0 0 0
385 0 8 -1.05 12.888523015327069 1.3717550193113803 -23.036863829467706 0 0 0
388 0 8 -1.05 14.960022537490161 1.2282804294801677 -21.024163295433475 0 0 0
636 0 7 1.575 13.846725658468015 2.32282640078293 -19.9448199609929 0 0 0
40 0 7 1.575 15.995956748377678 0.17043447075508955 -26.27442957500881 0 0 0
396 0 7 1.575 20.22573621505721 0.21545532132353384 -22.068697324247193 0 0 0
60 0 7 1.575 24.44688237451596 0.23339568402836372 -26.291198367832283 0 0 0
686 0 7 1.575 18.09168491992402 6.577152238091201 -19.926774991150396 0 0 0
650 0 7 1.575 22.334816888740544 2.350241626655577 -19.953353735668063 0 0 0
402 0 8 -1.05 23.516100871161797 1.164790003675672 -20.867605256775246 0 0 0
50 0 8 -1.05 19.271989633287813 1.1545419056787918 -25.119846011887304 0 0 0
395 0 8 -1.05 19.14541022546681 3.404620035618543 -22.96183435131295 0 0 0
106 0 8 -1.05 19.079101652661375 5.598592028483201 -25.200278408157843 0 0 0
391 0 8 -1.05 17.139656959201584 3.4199225394559227 -20.917005828216524 0 0 0
399 0 8 -1.05 21.338795842790415 1.3426152705511183 -23.101695177998113 0 0 0
434 0 8 -1.05 19.084237199331312 7.608633605587672 -23.16231907395331 0 0 0
54 0 8 -1.05 21.34414980962176 3.327074806958864 -25.14137528219437 0 0 0
441 0 8 -1.05 23.313824043208033 5.4902595406625325 -20.833800205511025 0 0 0
436 0 8 -1.05 19.266431398923753 5.412378718918648 -20.8765163106269 0 0 0
400 0 8 -1.05 23.32901288595363 3.335847316981253 -23.110351811487057 0 0 0
393 0 8 -1.05 19.188288357462223 1.362304702112301 -20.847170594153347 0 0 0
437 0 8 -1.05 21.266564976807544 5.531603759749003 -22.95564739479271 0 0 0
104 0 8 -1.05 17.103880166268965 7.5692845693129085 -25.180483221681886 0 0 0
443 0 8 -1.05 23.381635704705868 7.749720540542492 -23.010071842067784 0 0 0
433 0 8 -1.05 17.06877870302101 5.587655019520423 -23.1732076411367 0 0 0
439 0 8 -1.05 21.25352845116937 7.550528495494993 -20.896538012305104 0 0 0
397 0 8 -1.05 21.158313672065642 3.5261660828434795 -20.893501144113973 0 0 0
56 0 8 -1.05 23.33270347406718 1.3452778490237838 -25.13814843049178 0 0 0
438 0 7 1.575 21.283474784109984 5.545425991667353 -21.005968304660435 0 0 0
107 0 7 1.575 19.154649732708116 7.62624942406702 -25.245247638230584 0 0 0
57 0 7 1.575 23.390995594677765 3.3912263918558363 -25.225302256878187 0 0 0
390 0 6 1.05 17.037397855881167 1.3110774700449677 -20.988786944581012 0 0 0
401 0 6 1.05 23.418634548925507 1.2619063108226158 -23.11639163903305 0 0 0
398 0 6 1.05 21.261681816022087 3.4166915169777226 -23.120685741196557 0 0 0
103 0 7 1.575 17.054318598124 5.521698469046709 -25.24596170415203 0 0 0
432 0 6 1.05 17.011785412804908 7.657962430430082 -23.142643322663222 0 0 0
435 0 6 1.05 19.167613055758817 5.51099741122044 -23.158364191465242 0 0 0
442 0 6 1.05 23.382030727055763 7.62890610232455 -20.98135717940135 0 0 0
394 0 7 1.575 19.1426682257834 3.3962456782615207 -21.01129221769139 0 0 0
53 0 7 1.575 21.292546841960963 1.2841098129864603 -25.22639098268822 0 0 0
440 0 7 1.575 22.33770670389548 6.599016022985016 -24.20328199660026 0 0 0
444 0 7 1.575 24.447098624421304 4.4489793978558065 -22.06673511989506 0 0 0
392 0 7 1.575 18.086954710940528 2.332545956904441 -24.21142305158994 0 0 0
120 0 8 -1.05 23.513176182369598 5.410735374273657 -25.11135527784553 0 0 0
111 0 8 -1.05 21.126874153152073 7.717885706792459 -25.1520210190136 0 0 0
110 0 7 1.575 20.23945407532267 4.437302663424061 -26.29572797027082 0 0 0
389 0 8 -1.05 16.948550983504163 1.2181935022098247 -23.043634072571244 0 0 0
431 0 8 -1.05 16.932031133155082 7.742700464896544 -20.90253431890263 0 0 0
41 0 8 -1.05 16.964740162303016 3.544876832348019 -25.155603259093603 0 0 0
140 0 7 1.575 7.496722359086448 8.729254072849182 -26.26444649836019 0 0 0
452 0 7 1.575 3.2524093444770306 8.711520572485236 -22.050622353805217 0 0 0
130 0 8 -1.05 2.3123026082800435 9.647759073057795 -25.11207069738566 0 0 0
458 0 8 -1.05 6.5894275178154835 9.704538979902951 -20.88330064347528 0 0 0
448 0 7 1.575 1.1336799807422464 10.81881549291203 -24.176149437733873 0 0 0
133 0 7 1.575 4.33005264281582 9.763402947603609 -25.237847881145985 0 0 0
450 0 7 1.575 2.184592332484518 11.887719146607383 -20.96244019856789 0 0 0
454 0 7 1.575 4.315356205807644 11.900040214826184 -23.091475663071282 0 0 0
457 0 6 1.05 6.447684240877839 9.743444559828038 -23.08663556240745 0 0 0
446 0 7 1.575 0.08319430046152865 9.769734495730207 -20.954611378648963 0 0 0
137 0 6 1.05 6.4245676580617515 11.85993953007717 -25.223705398207212 0 0 0
136 0 8 -1.05 6.3416365770700205 9.773760075612232 -25.114039343667013 0 0 0
453 0 8 -1.05 4.20071984502797 11.907902513797682 -20.987264061811327 0 0 0
449 0 8 -1.05 2.1189309568501997 9.841963697981383 -20.912500706053017 0 0 0
456 0 8 -1.05 6.309235893216226 11.83460941592604 -23.013620255531453 0 0 0